 vasp.5.3.5 31Mar14 (build Jun 12 2014 12:38:11) complex                        
  
 executed on Abel.uio.no,ifort-20 date 2018.10.11  14:48:49
 running on   64 total cores
 distrk:  each k-point on   64 cores,    1 groups
 distr:  one band on NCORES_PER_BAND=  16 cores,    4 groups


--------------------------------------------------------------------------------------------------------


 INCAR:
 POTCAR:   PAW_PBE Ru_pv 06Sep2000                
 POTCAR:    PAW_PBE Li_sv 10Sep2004               
 POTCAR:   PAW_PBE O 08Apr2002                    
 POTCAR:   PAW_PBE Ru_pv 06Sep2000                
   VRHFIN =Ru: 4p5s4d                                                           
   LEXCH  = PE                                                                  
   EATOM  =  1872.7511 eV,  137.6433 Ry                                         
                                                                                
   TITEL  = PAW_PBE Ru_pv 06Sep2000                                             
   LULTRA =        F    use ultrasoft PP ?                                      
   IUNSCR =        1    unscreen: 0-lin 1-nonlin 2-no                           
   RPACOR =    2.170    partial core radius                                     
   POMASS =  101.070; ZVAL   =   14.000    mass and valenz                      
   RCORE  =    2.500    outmost cutoff radius                                   
   RWIGS  =    2.650; RWIGS  =    1.402    wigner-seitz radius (au A)           
   ENMAX  =  230.429; ENMIN  =  172.822 eV                                      
   RCLOC  =    1.830    cutoff for local pot                                    
   LCOR   =        T    correct aug charges                                     
   LPAW   =        T    paw PP                                                  
   EAUG   =  379.033                                                            
   DEXC   =    -.004                                                            
   RMAX   =    3.037    core radius for proj-oper                               
   RAUG   =    1.300    factor for augmentation sphere                          
   RDEP   =    2.520    radius for radial grids                                 
   QCUT   =   -4.115; QGAM   =    8.231    optimization parameters              
                                                                                
   Description                                                                  
     l     E      TYP  RCUT    TYP  RCUT                                        
     1   .000     23  2.500                                                     
     1  -.500     23  2.500                                                     
     2   .000     23  2.500                                                     
     2   .000     23  2.500                                                     
     0   .000     23  2.500                                                     
     0   .000     23  2.500                                                     
     3   .000      7   .000                                                     
  local pseudopotential read in
  partial core-charges read in
  atomic valenz-charges read in
  non local Contribution for L=           1  read in
    real space projection operators read in
  non local Contribution for L=           1  read in
    real space projection operators read in
  non local Contribution for L=           2  read in
    real space projection operators read in
  non local Contribution for L=           2  read in
    real space projection operators read in
  non local Contribution for L=           0  read in
    real space projection operators read in
  non local Contribution for L=           0  read in
    real space projection operators read in
    PAW grid and wavefunctions read in
 
   number of l-projection  operators is LMAX  =           6
   number of lm-projection operators is LMMAX =          18
 
 POTCAR:    PAW_PBE Li_sv 10Sep2004               
   VRHFIN =Li: 1s2s2p                                                           
   LEXCH  = PE                                                                  
   EATOM  =   202.7858 eV,   14.9043 Ry                                         
                                                                                
   TITEL  = PAW_PBE Li_sv 10Sep2004                                             
   LULTRA =        F    use ultrasoft PP ?                                      
   IUNSCR =        0    unscreen: 0-lin 1-nonlin 2-no                           
   RPACOR =     .000    partial core radius                                     
   POMASS =    7.010; ZVAL   =    3.000    mass and valenz                      
   RCORE  =    1.700    outmost cutoff radius                                   
   RWIGS  =    2.050; RWIGS  =    1.085    wigner-seitz radius (au A)           
   ENMAX  =  499.034; ENMIN  =  374.276 eV                                      
   ICORE  =        2    local potential                                         
   LCOR   =        T    correct aug charges                                     
   LPAW   =        T    paw PP                                                  
   EAUG   =  628.945                                                            
   RMAX   =    2.064    core radius for proj-oper                               
   RAUG   =    1.300    factor for augmentation sphere                          
   RDEP   =    1.728    radius for radial grids                                 
   QCUT   =   -6.056; QGAM   =   12.112    optimization parameters              
                                                                                
   Description                                                                  
     l     E      TYP  RCUT    TYP  RCUT                                        
     0   .000     23  1.400                                                     
     0   .000     23  1.700                                                     
     1   .000     23  1.400                                                     
     2   .000     23  1.400                                                     
  local pseudopotential read in
  atomic valenz-charges read in
  non local Contribution for L=           0  read in
    real space projection operators read in
  non local Contribution for L=           0  read in
    real space projection operators read in
  non local Contribution for L=           1  read in
    real space projection operators read in
    PAW grid and wavefunctions read in
 
   number of l-projection  operators is LMAX  =           3
   number of lm-projection operators is LMMAX =           5
 
 POTCAR:   PAW_PBE O 08Apr2002                    
   VRHFIN =O: s2p4                                                              
   LEXCH  = PE                                                                  
   EATOM  =   432.3788 eV,   31.7789 Ry                                         
                                                                                
   TITEL  = PAW_PBE O 08Apr2002                                                 
   LULTRA =        F    use ultrasoft PP ?                                      
   IUNSCR =        0    unscreen: 0-lin 1-nonlin 2-no                           
   RPACOR =     .000    partial core radius                                     
   POMASS =   16.000; ZVAL   =    6.000    mass and valenz                      
   RCORE  =    1.520    outmost cutoff radius                                   
   RWIGS  =    1.550; RWIGS  =     .820    wigner-seitz radius (au A)           
   ENMAX  =  400.000; ENMIN  =  300.000 eV                                      
   ICORE  =        2    local potential                                         
   LCOR   =        T    correct aug charges                                     
   LPAW   =        T    paw PP                                                  
   EAUG   =  605.392                                                            
   DEXC   =     .000                                                            
   RMAX   =    2.264    core radius for proj-oper                               
   RAUG   =    1.300    factor for augmentation sphere                          
   RDEP   =    1.550    radius for radial grids                                 
   QCUT   =   -5.520; QGAM   =   11.041    optimization parameters              
                                                                                
   Description                                                                  
     l     E      TYP  RCUT    TYP  RCUT                                        
     0   .000     23  1.200                                                     
     0  -.700     23  1.200                                                     
     1   .000     23  1.520                                                     
     1   .600     23  1.520                                                     
     2   .000      7  1.500                                                     
  local pseudopotential read in
  atomic valenz-charges read in
  non local Contribution for L=           0  read in
    real space projection operators read in
  non local Contribution for L=           0  read in
    real space projection operators read in
  non local Contribution for L=           1  read in
    real space projection operators read in
  non local Contribution for L=           1  read in
    real space projection operators read in
    PAW grid and wavefunctions read in
 
   number of l-projection  operators is LMAX  =           4
   number of lm-projection operators is LMMAX =           8
 

 ----------------------------------------------------------------------------- 
|                                                                             |
|  ADVICE TO THIS USER RUNNING 'VASP/VAMP'   (HEAR YOUR MASTER'S VOICE ...):  |
|                                                                             |
|      You have a (more or less) 'large supercell' and for larger cells       |
|      it might be more efficient to use real space projection operators      |
|      So try LREAL= Auto  in the INCAR   file.                               |
|      Mind: If you want to do a very accurate calculations keep the          |
|      reciprocal projection scheme          (i.e. LREAL=.FALSE.)             |
|                                                                             |
 ----------------------------------------------------------------------------- 

 PAW_PBE Ru_pv 06Sep2000                :
 energy of atom  1       EATOM=-1872.7511
 kinetic energy error for atom=    0.0013 (will be added to EATOM!!)
  PAW_PBE Li_sv 10Sep2004               :
 energy of atom  2       EATOM= -202.7858
 kinetic energy error for atom=    0.0100 (will be added to EATOM!!)
 PAW_PBE O 08Apr2002                    :
 energy of atom  3       EATOM= -432.3788
 kinetic energy error for atom=    0.0168 (will be added to EATOM!!)
 
 
 POSCAR: Li2 O3 Ru1                              
  positions in direct lattice
  velocities in cartesian coordinates
 exchange correlation table for  LEXCH =        8
   RHO(1)=    0.500       N(1)  =     2000
   RHO(2)=  100.500       N(2)  =     4000

 VTST: version 3.1, (03/28/14)

 CHAIN: initializing optimizer
 
 OPT: Using VASP QUASI-newton optimizer
 CHAIN: Read ICHAIN            0
 
 POSCAR: Li2 O3 Ru1                              
  positions in direct lattice
  velocities in cartesian coordinates
 


--------------------------------------------------------------------------------------------------------


 ion  position               nearest neighbor table
   1  0.248  0.082  0.000-  38 1.98  25 1.99  41 2.04  42 2.04  37 2.10  30 2.10  13 2.96  12 2.97
                            20 2.98   2 2.99   6 3.01   2 3.02
   2  0.752  0.918  1.000-  37 1.98  26 1.99  42 2.04  41 2.04  38 2.10  29 2.10  14 2.96  11 2.97
                            19 2.98   1 2.99   5 3.01   1 3.02
   3  0.752  0.082  0.500-  40 1.98  27 1.99  43 2.04  44 2.04  39 2.10  32 2.10  13 2.96  10 2.97
                            20 2.98   4 2.99   8 3.01   4 3.02
   4  0.248  0.918  0.500-  39 1.98  28 1.99  44 2.04  43 2.04  40 2.10  31 2.10  14 2.96   9 2.97
                            19 2.98   3 2.99   7 3.01   3 3.02
   5  0.748  0.582  0.000-  34 1.98  29 1.99  45 2.04  46 2.04  33 2.10  26 2.10  15 2.96  11 2.97
                            18 2.98   6 2.99   2 3.01   6 3.02
   6  0.252  0.418  1.000-  33 1.98  30 1.99  46 2.04  45 2.04  34 2.10  25 2.10  16 2.96  12 2.97
                            17 2.98   5 2.99   1 3.01   5 3.02
   7  0.252  0.582  0.500-  36 1.98  31 1.99  47 2.04  48 2.04  35 2.10  28 2.10  15 2.96   9 2.97
                            18 2.98   8 2.99   4 3.01   8 3.02
   8  0.748  0.418  0.500-  35 1.98  32 1.99  48 2.04  47 2.04  36 2.10  27 2.10  16 2.96  10 2.97
                            17 2.98   7 2.99   3 3.01   7 3.02
   9  0.250  0.250  0.500-  44 2.12  47 2.12  39 2.15  36 2.15  27 2.18  32 2.18   7 2.97   4 2.97

  10  0.750  0.750  0.500-  43 2.12  48 2.12  40 2.15  35 2.15  31 2.18  28 2.18   8 2.97   3 2.97

  11  0.750  0.250  0.000-  42 2.12  45 2.12  37 2.15  34 2.15  25 2.18  30 2.18   5 2.97   2 2.97

  12  0.250  0.750  0.000-  46 2.12  41 2.12  33 2.15  38 2.15  29 2.18  26 2.18   6 2.97   1 2.97

  13  0.000  0.085  0.250-  41 2.11  43 2.11  27 2.12  25 2.12  39 2.21  37 2.21   3 2.96   1 2.96

  14  0.000  0.915  0.750-  44 2.11  42 2.11  26 2.12  28 2.12  38 2.21  40 2.21   4 2.96   2 2.96

  15  0.500  0.585  0.250-  45 2.11  47 2.11  29 2.12  31 2.12  33 2.21  35 2.21   7 2.96   5 2.96

  16  0.500  0.415  0.750-  46 2.11  48 2.11  30 2.12  32 2.12  36 2.21  34 2.21   8 2.96   6 2.96

  17  0.000  0.409  0.250-  35 2.11  33 2.11  27 2.17  25 2.17  45 2.24  47 2.24   6 2.98   8 2.98

  18  0.000  0.591  0.750-  34 2.11  36 2.11  26 2.17  28 2.17  48 2.24  46 2.24   5 2.98   7 2.98

  19  0.500  0.909  0.250-  37 2.11  39 2.11  29 2.17  31 2.17  43 2.24  41 2.24   2 2.98   4 2.98

  20  0.500  0.091  0.750-  40 2.11  38 2.11  30 2.17  32 2.17  42 2.24  44 2.24   1 2.98   3 2.98

  21  0.000  0.753  0.250-  29 2.11  31 2.11  41 2.15  43 2.15  35 2.25  33 2.25
  22  0.000  0.247  0.750-  30 2.11  32 2.11  44 2.15  42 2.15  34 2.25  36 2.25
  23  0.500  0.253  0.250-  25 2.11  27 2.11  45 2.15  47 2.15  37 2.25  39 2.25
  24  0.500  0.747  0.750-  28 2.11  26 2.11  46 2.15  48 2.15  40 2.25  38 2.25
  25  0.140  0.243  0.119-   1 1.99   6 2.10  23 2.11  13 2.12  17 2.17  11 2.18
  26  0.860  0.757  0.881-   2 1.99   5 2.10  24 2.11  14 2.12  18 2.17  12 2.18
  27  0.860  0.243  0.381-   3 1.99   8 2.10  23 2.11  13 2.12  17 2.17   9 2.18
  28  0.140  0.757  0.619-   4 1.99   7 2.10  24 2.11  14 2.12  18 2.17  10 2.18
  29  0.640  0.743  0.119-   5 1.99   2 2.10  21 2.11  15 2.12  19 2.17  12 2.18
  30  0.360  0.257  0.881-   6 1.99   1 2.10  22 2.11  16 2.12  20 2.17  11 2.18
  31  0.360  0.743  0.381-   7 1.99   4 2.10  21 2.11  15 2.12  19 2.17  10 2.18
  32  0.640  0.257  0.619-   8 1.99   3 2.10  22 2.11  16 2.12  20 2.17   9 2.18
  33  0.119  0.570  0.116-   6 1.98   5 2.10  17 2.11  12 2.15  15 2.21  21 2.25
  34  0.881  0.430  0.884-   5 1.98   6 2.10  18 2.11  11 2.15  16 2.21  22 2.25
  35  0.881  0.570  0.384-   8 1.98   7 2.10  17 2.11  10 2.15  15 2.21  21 2.25
  36  0.119  0.430  0.616-   7 1.98   8 2.10  18 2.11   9 2.15  16 2.21  22 2.25
  37  0.619  0.070  0.116-   2 1.98   1 2.10  19 2.11  11 2.15  13 2.21  23 2.25
  38  0.381  0.930  0.884-   1 1.98   2 2.10  20 2.11  12 2.15  14 2.21  24 2.25
  39  0.381  0.070  0.384-   4 1.98   3 2.10  19 2.11   9 2.15  13 2.21  23 2.25
  40  0.619  0.930  0.616-   3 1.98   4 2.10  20 2.11  10 2.15  14 2.21  24 2.25
  41  0.111  0.922  0.117-   1 2.04   2 2.04  13 2.11  12 2.12  21 2.15  19 2.24
  42  0.889  0.078  0.883-   2 2.04   1 2.04  14 2.11  11 2.12  22 2.15  20 2.24
  43  0.889  0.922  0.383-   3 2.04   4 2.04  13 2.11  10 2.12  21 2.15  19 2.24
  44  0.111  0.078  0.617-   4 2.04   3 2.04  14 2.11   9 2.12  22 2.15  20 2.24
  45  0.611  0.422  0.117-   5 2.04   6 2.04  15 2.11  11 2.12  23 2.15  17 2.24
  46  0.389  0.578  0.883-   6 2.04   5 2.04  16 2.11  12 2.12  24 2.15  18 2.24
  47  0.389  0.422  0.383-   7 2.04   8 2.04  15 2.11   9 2.12  23 2.15  17 2.24
  48  0.611  0.578  0.617-   8 2.04   7 2.04  16 2.11  10 2.12  24 2.15  18 2.24
 
  LATTYP: Found a simple monoclinic cell.
 ALAT       =    10.3780568410
 B/A-ratio  =     0.8629249759
 C/A-ratio  =     1.8828508180
 COS(beta)  =    -0.9679523850
  
  Lattice vectors:
  
 A1 = (  -3.5313324403,   0.0000000000,  -9.7587783555)
 A2 = (   0.0000000000,  -8.9554844498,   0.0000000000)
 A3 = (   1.8214749044,   0.0000000000,  19.4552521339)


Analysis of symmetry for initial positions (statically):
=====================================================================
 Subroutine PRICEL returns following result:
 
  LATTYP: Found a base centered monoclinic cell.
 ALAT       =     5.2415601284
 B/A-ratio  =     1.7085532228
 C/A-ratio  =     2.5123348121
 COS(beta)  =    -0.3409582028
  
  Lattice vectors:
  
 A1 = (   2.6205949095,   4.4777422876,   0.0311522876)
 A2 = (   2.6205949095,  -4.4777421622,   0.0311522876)
 A3 = (  -8.7725221021,  -0.0000002508,  -9.8210829289)
 
   2 primitive cells build up your supercell.
 

 Routine SETGRP: Setting up the symmetry group for a 
 simple monoclinic supercell.


 Subroutine GETGRP returns: Found  4 space group operations
 (whereof  2 operations were pure point group operations)
 out of a pool of  4 trial point group operations.


The static configuration has the point symmetry S_2 .
 The point group associated with its full space group is C_2h.


Analysis of symmetry for dynamics (positions and initial velocities):
=====================================================================
 Subroutine PRICEL returns following result:
 
  LATTYP: Found a base centered monoclinic cell.
 ALAT       =     5.2415601284
 B/A-ratio  =     1.7085532228
 C/A-ratio  =     2.5123348121
 COS(beta)  =    -0.3409582028
  
  Lattice vectors:
  
 A1 = (   2.6205949095,   4.4777422876,   0.0311522876)
 A2 = (   2.6205949095,  -4.4777421622,   0.0311522876)
 A3 = (  -8.7725221021,  -0.0000002508,  -9.8210829289)
 
   2 primitive cells build up your supercell.
 

 Routine SETGRP: Setting up the symmetry group for a 
 simple monoclinic supercell.


 Subroutine GETGRP returns: Found  4 space group operations
 (whereof  2 operations were pure point group operations)
 out of a pool of  4 trial point group operations.


The dynamic configuration has the point symmetry S_2 .
 The point group associated with its full space group is C_2h.


Analysis of magnetic symmetry:
=====================================================================
 Subroutine PRICEL returns following result:
 
  LATTYP: Found a base centered monoclinic cell.
 ALAT       =     5.2415601284
 B/A-ratio  =     1.7085532228
 C/A-ratio  =     2.5123348121
 COS(beta)  =    -0.3409582028
  
  Lattice vectors:
  
 A1 = (   2.6205949095,   4.4777422876,   0.0311522876)
 A2 = (   2.6205949095,  -4.4777421622,   0.0311522876)
 A3 = (  -8.7725221021,  -0.0000002508,  -9.8210829289)
 
   2 primitive cells build up your supercell.
 

 Subroutine MAGSYM returns: Found  4 space group operations
 (whereof  2 operations were pure point group operations)
 out of a pool of  4 trial space group operations
 (whereof  2 operations were pure point group operations)
 and found also     2 'primitive' translations


The magnetic configuration has the point symmetry S_2 .
 The point group associated with its full space group is C_2h.
 
 
 KPOINTS: K-Points                                

Automatic generation of k-mesh.
Space group operators:
 irot       det(A)        alpha          n_x          n_y          n_z        tau_x        tau_y        tau_z
    1     1.000000     0.000000     1.000000     0.000000     0.000000     0.000000     0.000000     0.000000
    2    -1.000000     0.000000     1.000000     0.000000     0.000000     0.000000     0.000000     0.000000
    3     1.000000   179.999999     0.000000     1.000000     0.000000    -1.000000    -0.000000    -0.500000
    4    -1.000000   179.999999     0.000000     1.000000     0.000000     0.000000    -0.000000    -0.500000
 
 Subroutine IBZKPT returns following result:
 ===========================================
 
 Found     16 irreducible k-points:
 
 Following reciprocal coordinates:
            Coordinates               Weight
  0.000000  0.000000  0.000000      1.000000
  0.200000  0.000000  0.000000      2.000000
  0.400000  0.000000  0.000000      2.000000
  0.000000  0.333333  0.000000      2.000000
  0.200000  0.333333  0.000000      4.000000
  0.400000  0.333333  0.000000      4.000000
 -0.000000  0.000000  0.333333      2.000000
  0.200000  0.000000  0.333333      2.000000
  0.400000  0.000000  0.333333      2.000000
 -0.400000  0.000000  0.333333      2.000000
 -0.200000  0.000000  0.333333      2.000000
 -0.000000  0.333333  0.333333      4.000000
  0.200000  0.333333  0.333333      4.000000
  0.400000  0.333333  0.333333      4.000000
 -0.400000  0.333333  0.333333      4.000000
 -0.200000  0.333333  0.333333      4.000000
 
 Following cartesian coordinates:
            Coordinates               Weight
  0.000000  0.000000  0.000000      1.000000
  0.038079  0.000000  0.006715      2.000000
  0.076159  0.000000  0.013430      2.000000
  0.000000  0.037221  0.000000      2.000000
  0.038079  0.037221  0.006715      4.000000
  0.076159  0.037221  0.013430      4.000000
 -0.000408  0.000000  0.034305      2.000000
  0.037672  0.000000  0.041020      2.000000
  0.075751  0.000000  0.047735      2.000000
 -0.076567  0.000000  0.020875      2.000000
 -0.038487  0.000000  0.027590      2.000000
 -0.000408  0.037221  0.034305      4.000000
  0.037672  0.037221  0.041020      4.000000
  0.075751  0.037221  0.047735      4.000000
 -0.076567  0.037221  0.020875      4.000000
 -0.038487  0.037221  0.027590      4.000000
 


--------------------------------------------------------------------------------------------------------




 Dimension of arrays:
   k-points           NKPTS =     16   k-points in BZ     NKDIM =     16   number of bands    NBANDS=    184
   number of dos      NEDOS =    301   number of ions     NIONS =     48
   non local maximal  LDIM  =      6   non local SUM 2l+1 LMDIM =     18
   total plane-waves  NPLWV = 103680
   max r-space proj   IRMAX =      1   max aug-charges    IRDMAX=  12888
   dimension x,y,z NGX =    32 NGY =   54 NGZ =   60
   dimension x,y,z NGXF=    64 NGYF=  108 NGZF=  120
   support grid    NGXF=    64 NGYF=  108 NGZF=  120
   ions per type =               8  16  24
 NGX,Y,Z   is equivalent  to a cutoff of  10.15, 10.02, 10.13 a.u.
 NGXF,Y,Z  is equivalent  to a cutoff of  20.30, 20.05, 20.26 a.u.


 I would recommend the setting:
   dimension x,y,z NGX =    31 NGY =   54 NGZ =   59
 SYSTEM =  Li2RuO3                                 
 POSCAR =  Li2 O3 Ru1                              

 Startparameter for this run:
   NWRITE =      2    write-flag & timer
   PREC   = normal    normal or accurate (medium, high low for compatibility)
   ISTART =      0    job   : 0-new  1-cont  2-samecut
   ICHARG =      2    charge: 1-file 2-atom 10-const
   ISPIN  =      2    spin polarized calculation?
   LNONCOLLINEAR =      F non collinear calculations
   LSORBIT =      F    spin-orbit coupling
   INIWAV =      1    electr: 0-lowe 1-rand  2-diag
   LASPH  =      F    aspherical Exc in radial PAW
   METAGGA=      F    non-selfconsistent MetaGGA calc.

 Electronic Relaxation 1
   ENCUT  =  600.0 eV  44.10 Ry    6.64 a.u.  10.47 17.89 19.67*2*pi/ulx,y,z
   ENINI  =  600.0     initial cutoff
   ENAUG  =  628.9 eV  augmentation charge cutoff
   NELM   =    120;   NELMIN=  4; NELMDL= -5     # of ELM steps 
   EDIFF  = 0.1E-04   stopping-criterion for ELM
   LREAL  =      F    real-space projection
   NLSPLINE    = F    spline interpolate recip. space projectors
   LCOMPAT=      F    compatible to vasp.4.4
   GGA_COMPAT  = T    GGA compatible to vasp.4.4-vasp.4.6
   LMAXPAW     = -100 max onsite density
   LMAXMIX     =    2 max onsite mixed and CHGCAR
   VOSKOWN=      0    Vosko Wilk Nusair interpolation
   ROPT   =    0.00000   0.00000   0.00000
 Ionic relaxation
   EDIFFG = -.1E-02   stopping-criterion for IOM
   NSW    =     50    number of steps for IOM
   NBLOCK =      1;   KBLOCK =     50    inner block; outer block 
   IBRION =      1    ionic relax: 0-MD 1-quasi-New 2-CG
   NFREE  =      0    steps in history (QN), initial steepest desc. (CG)
   ISIF   =      3    stress and relaxation
   IWAVPR =     11    prediction:  0-non 1-charg 2-wave 3-comb
   ISYM   =      2    0-nonsym 1-usesym 2-fastsym
   LCORR  =      T    Harris-Foulkes like correction to forces

   POTIM  = 0.5000    time-step for ionic-motion
   TEIN   =    0.0    initial temperature
   TEBEG  =    0.0;   TEEND  =   0.0 temperature during run
   SMASS  =  -3.00    Nose mass-parameter (am)
   estimated Nose-frequenzy (Omega)   =  0.10E-29 period in steps =****** mass=  -0.628E-27a.u.
   SCALEE = 1.0000    scale energy and forces
   NPACO  =    256;   APACO  = 16.0  distance and # of slots for P.C.
   PSTRESS=    0.0 pullay stress

  Mass of Ions in am
   POMASS = 101.07  7.01 16.00
  Ionic Valenz
   ZVAL   =  14.00  3.00  6.00
  Atomic Wigner-Seitz radii
   RWIGS  =  -1.00 -1.00 -1.00
  virtual crystal weights 
   VCA    =   1.00  1.00  1.00
   NELECT =     304.0000    total number of electrons
   NUPDOWN=      -1.0000    fix difference up-down

 DOS related values:
   EMIN   =  10.00;   EMAX   =-10.00  energy-range for DOS
   EFERMI =   0.00
   ISMEAR =     0;   SIGMA  =   0.01  broadening in eV -4-tet -1-fermi 0-gaus

 Electronic relaxation 2 (details)
   IALGO  =     38    algorithm
   LDIAG  =      T    sub-space diagonalisation (order eigenvalues)
   LSUBROT=      F    optimize rotation matrix (better conditioning)
   TURBO    =      0    0=normal 1=particle mesh
   IRESTART =      0    0=no restart 2=restart with 2 vectors
   NREBOOT  =      0    no. of reboots
   NMIN     =      0    reboot dimension
   EREF     =   0.00    reference energy to select bands
   IMIX   =      4    mixing-type and parameters
     AMIX     =   0.40;   BMIX     =  1.00
     AMIX_MAG =   1.60;   BMIX_MAG =  1.00
     AMIN     =   0.10
     WC   =   100.;   INIMIX=   1;  MIXPRE=   1;  MAXMIX= -45

 Intra band minimization:
   WEIMIN = 0.0010     energy-eigenvalue tresh-hold
   EBREAK =  0.14E-07  absolut break condition
   DEPER  =   0.30     relativ break condition  

   TIME   =   0.40     timestep for ELM

  volume/ion in A,a.u.               =       9.50        64.12
  Fermi-wavevector in a.u.,A,eV,Ry     =   1.430052  2.702407 27.824592  2.045050
  Thomas-Fermi vector in A             =   2.549939
 
 Write flags
   LWAVE  =      F    write WAVECAR
   LCHARG =      F    write CHGCAR
   LVTOT  =      F    write LOCPOT, total local potential
   LVHAR  =      F    write LOCPOT, Hartree potential only
   LELF   =      F    write electronic localiz. function (ELF)
   LORBIT =     10    0 simple, 1 ext, 2 COOP (PROOUT)


 Dipole corrections
   LMONO  =      F    monopole corrections only (constant potential shift)
   LDIPOL =      F    correct potential (dipole corrections)
   IDIPOL =      0    1-x, 2-y, 3-z, 4-all directions 
   EPSILON=  1.0000000 bulk dielectric constant

 LDA+U is selected, type is set to LDAUTYPE =  2
   angular momentum for each species LDAUL =     2   -1   -1
   U (eV)           for each species LDAUU =   4.0  0.0  0.0
   J (eV)           for each species LDAUJ =   0.0  0.0  0.0
 Exchange correlation treatment:
   GGA     =    --    GGA type
   LEXCH   =     8    internal setting for exchange type
   VOSKOWN=      0    Vosko Wilk Nusair interpolation
   LHFCALC =     F    Hartree Fock is set to
   LHFONE  =     F    Hartree Fock one center treatment
   AEXX    =    0.0000 exact exchange contribution

 Linear response parameters
   LEPSILON=     F    determine dielectric tensor
   LRPA    =     F    only Hartree local field effects (RPA)
   LNABLA  =     F    use nabla operator in PAW spheres
   LVEL    =     F    velocity operator in full k-point grid
   LINTERFAST=   F  fast interpolation
   KINTER  =     0    interpolate to denser k-point grid
   CSHIFT  =0.1000    complex shift for real part using Kramers Kronig
   OMEGAMAX=  -1.0    maximum frequency
   DEG_THRESHOLD= 0.2000000E-02 threshold for treating states as degnerate
   RTIME   =    0.100 relaxation time in fs

 Orbital magnetization related:
   ORBITALMAG=     F  switch on orbital magnetization
   LCHIMAG   =     F  perturbation theory with respect to B field
   DQ        =  0.001000  dq finite difference perturbation B field



--------------------------------------------------------------------------------------------------------


 quasi-Newton-method for relaxation of ions
 charge density and potential will be updated during run
 spin polarized calculation
 Variant of blocked Davidson
 Davidson routine will perform the subspace rotation
 perform sub-space diagonalisation
    after iterative eigenvector-optimisation
 modified Broyden-mixing scheme, WC =      100.0
 initial mixing is a Kerker type mixing with AMIX =  0.4000 and BMIX =      1.0000
 Hartree-type preconditioning will be used
 using additional bands           32
 reciprocal scheme for non local part
 use partial core corrections
 calculate Harris-corrections to forces 
   (improved forces if not selfconsistent)
 use gradient corrections 
 use of overlap-Matrix (Vanderbilt PP)
 Gauss-broadening in eV      SIGMA  =   0.01


--------------------------------------------------------------------------------------------------------


  energy-cutoff  :      600.00
  volume of cell :      456.08
      direct lattice vectors                 reciprocal lattice vectors
     5.241189976  0.000000000  0.062304577     0.190397252  0.000000000  0.033574285
     0.000000000  8.955484450  0.000000000     0.000000000  0.111663418  0.000000000
    -1.709857536  0.000000000  9.696473778    -0.001223395  0.000000000  0.102914543

  length of vectors
     5.241560286  8.955484450  9.846076200     0.193334803  0.111663418  0.102921814


 
 k-points in units of 2pi/SCALE and weight: K-Points                                
   0.00000000  0.00000000  0.00000000       0.022
   0.03807945  0.00000000  0.00671486       0.044
   0.07615890  0.00000000  0.01342971       0.044
   0.00000000  0.03722114  0.00000000       0.044
   0.03807945  0.03722114  0.00671486       0.089
   0.07615890  0.03722114  0.01342971       0.089
  -0.00040780  0.00000000  0.03430485       0.044
   0.03767165  0.00000000  0.04101970       0.044
   0.07575110  0.00000000  0.04773456       0.044
  -0.07656670  0.00000000  0.02087513       0.044
  -0.03848725  0.00000000  0.02758999       0.044
  -0.00040780  0.03722114  0.03430485       0.089
   0.03767165  0.03722114  0.04101970       0.089
   0.07575110  0.03722114  0.04773456       0.089
  -0.07656670  0.03722114  0.02087513       0.089
  -0.03848725  0.03722114  0.02758999       0.089
 
 k-points in reciprocal lattice and weights: K-Points                                
   0.00000000  0.00000000  0.00000000       0.022
   0.20000000  0.00000000  0.00000000       0.044
   0.40000000  0.00000000  0.00000000       0.044
   0.00000000  0.33333333  0.00000000       0.044
   0.20000000  0.33333333  0.00000000       0.089
   0.40000000  0.33333333  0.00000000       0.089
  -0.00000000  0.00000000  0.33333333       0.044
   0.20000000  0.00000000  0.33333333       0.044
   0.40000000  0.00000000  0.33333333       0.044
  -0.40000000  0.00000000  0.33333333       0.044
  -0.20000000  0.00000000  0.33333333       0.044
  -0.00000000  0.33333333  0.33333333       0.089
   0.20000000  0.33333333  0.33333333       0.089
   0.40000000  0.33333333  0.33333333       0.089
  -0.40000000  0.33333333  0.33333333       0.089
  -0.20000000  0.33333333  0.33333333       0.089
 
 position of ions in fractional coordinates (direct lattice) 
   0.24793138  0.08206305  0.00007271
   0.75206861  0.91793696  0.99992728
   0.75206861  0.08206305  0.49992728
   0.24793138  0.91793696  0.50007272
   0.74793139  0.58206304  0.00007271
   0.25206861  0.41793696  0.99992728
   0.25206861  0.58206304  0.49992728
   0.74793139  0.41793696  0.50007272
   0.25000000  0.25000000  0.50000000
   0.75000000  0.75000000  0.50000000
   0.75000000  0.25000000  0.00000000
   0.25000000  0.75000000  0.00000000
   0.00000000  0.08540130  0.25000000
   0.00000000  0.91459871  0.75000000
   0.50000000  0.58540129  0.25000000
   0.50000000  0.41459871  0.75000000
   0.00000000  0.40896103  0.25000000
   0.00000000  0.59103897  0.75000000
   0.50000000  0.90896103  0.25000000
   0.50000000  0.09103897  0.75000000
   0.00000000  0.75254923  0.25000000
   0.00000000  0.24745077  0.75000000
   0.50000000  0.25254923  0.25000000
   0.50000000  0.74745077  0.75000000
   0.13973546  0.24290505  0.11866153
   0.86026455  0.75709495  0.88133844
   0.86026455  0.24290505  0.38133847
   0.13973546  0.75709495  0.61866156
   0.63973545  0.74290505  0.11866153
   0.36026455  0.25709495  0.88133844
   0.36026455  0.74290505  0.38133847
   0.63973545  0.25709495  0.61866156
   0.11942424  0.57009085  0.11637127
   0.88057578  0.42990915  0.88362872
   0.88057578  0.57009085  0.38362872
   0.11942424  0.42990915  0.61637128
   0.61942422  0.07009085  0.11637127
   0.38057575  0.92990915  0.88362872
   0.38057575  0.07009085  0.38362872
   0.61942422  0.92990915  0.61637128
   0.11149318  0.92204709  0.11663190
   0.88850679  0.07795291  0.88336811
   0.88850679  0.92204709  0.38336811
   0.11149318  0.07795291  0.61663189
   0.61149321  0.42204709  0.11663190
   0.38850682  0.57795291  0.88336811
   0.38850682  0.42204709  0.38336811
   0.61149321  0.57795291  0.61663189
 
 position of ions in cartesian coordinates  (Angst):
   1.29933112  0.73491436  0.01615233
   2.23200125  8.22057015  9.74262596
   3.08693002  0.73491436  4.89438907
   0.44440234  8.22057015  4.86438929
   3.91992619  5.21265652  0.04730462
  -0.38859373  3.74282793  9.71147367
   0.46633503  5.21265652  4.86323678
   3.06499741  3.74282793  4.89554157
   0.45536873  2.23887111  4.86381303
   3.07596371  6.71661334  4.89496532
   3.93089248  2.23887111  0.04672843
   1.31029749  6.71661334  0.01557614
  -0.42746438  0.76480997  2.42411844
  -1.28239315  8.19067454  7.27235533
   2.19313060  5.24255214  2.45527073
   1.33820184  3.71293231  7.30350762
  -0.42746438  3.66244418  2.42411844
  -1.28239315  5.29304027  7.27235533
   2.19313060  8.14018640  2.45527073
   1.33820184  0.81529805  7.30350762
  -0.42746438  6.73944289  2.42411844
  -1.28239315  2.21604156  7.27235533
   2.19313060  2.26170066  2.45527073
   1.33820184  6.69378379  7.30350762
   0.52948580  2.17533243  1.15930458
   3.00184677  6.78015202  8.59947349
   3.85677549  2.17533243  3.75123689
  -0.32544302  6.78015202  6.00754176
   3.15008070  6.65307465  1.19045687
   0.38125179  2.30240980  8.56832120
   1.23618050  6.65307465  3.72008460
   2.29515189  2.30240980  6.03869405
   0.42694682  5.10543972  1.13583163
   3.10438574  3.85004473  8.62294665
   3.95931451  5.10543972  3.77470976
  -0.42798196  3.85004473  5.98406860
   3.04754170  0.62769749  1.16698392
   0.48379060  8.32778696  8.59179436
   1.33871937  0.62769749  3.74355747
   2.19261292  8.32778696  6.01522089
   0.38493301  8.25737840  1.13786470
   3.14639925  0.69810605  8.62091380
   4.00132802  8.25737840  3.77267691
  -0.46999574  0.69810605  5.98610145
   3.00552815  3.77963617  1.16901699
   0.52580442  5.17584828  8.58976151
   1.38073319  3.77963617  3.74152462
   2.15059941  5.17584828  6.01725374
 


--------------------------------------------------------------------------------------------------------


 k-point  1 :   0.0000 0.0000 0.0000  plane waves:   15271
 k-point  2 :   0.2000 0.0000 0.0000  plane waves:   15224
 k-point  3 :   0.4000 0.0000 0.0000  plane waves:   15205
 k-point  4 :   0.0000 0.3333 0.0000  plane waves:   15230
 k-point  5 :   0.2000 0.3333 0.0000  plane waves:   15244
 k-point  6 :   0.4000 0.3333 0.0000  plane waves:   15207
 k-point  7 :  -0.0000 0.0000 0.3333  plane waves:   15241
 k-point  8 :   0.2000 0.0000 0.3333  plane waves:   15196
 k-point  9 :   0.4000 0.0000 0.3333  plane waves:   15183
 k-point 10 :  -0.4000 0.0000 0.3333  plane waves:   15191
 k-point 11 :  -0.2000 0.0000 0.3333  plane waves:   15239
 k-point 12 :  -0.0000 0.3333 0.3333  plane waves:   15233
 k-point 13 :   0.2000 0.3333 0.3333  plane waves:   15224
 k-point 14 :   0.4000 0.3333 0.3333  plane waves:   15202
 k-point 15 :  -0.4000 0.3333 0.3333  plane waves:   15196
 k-point 16 :  -0.2000 0.3333 0.3333  plane waves:   15228

 maximum and minimum number of plane-waves per node :       970      926

 maximum number of plane-waves:     15271
 maximum index in each direction: 
   IXMAX=   10   IYMAX=   17   IZMAX=   19
   IXMIN=  -10   IYMIN=  -18   IZMIN=  -19

 WARNING: aliasing errors must be expected set NGX to  42 to avoid them
 WARNING: aliasing errors must be expected set NGY to  72 to avoid them
 WARNING: aliasing errors must be expected set NGZ to  78 to avoid them
 aliasing errors are usually negligible using standard VASP settings
 and one can safely disregard these warnings

 parallel 3D FFT for wavefunctions:
    minimum data exchange during FFTs selected (reduces bandwidth)
 parallel 3D FFT for charge:
    minimum data exchange during FFTs selected (reduces bandwidth)


 total amount of memory used by VASP on root node    63176. kBytes
========================================================================

   base      :      30000. kBytes
   nonl-proj :       7372. kBytes
   fftplans  :        670. kBytes
   grid      :       1678. kBytes
   one-center:         93. kBytes
   wavefun   :      23363. kBytes
 
     INWAV:  cpu time    0.00: real time    0.00
 Broyden mixing: mesh for mixing (old mesh)
   NGX = 21   NGY = 35   NGZ = 39
  (NGX  = 64   NGY  =108   NGZ  =120)
  gives a total of  28665 points

 initial charge density was supplied:
 charge density of overlapping atoms calculated
 number of electron     304.0000000 magnetization       0.0000000
 keeping initial charge density in first step


--------------------------------------------------------------------------------------------------------


 Maximum index for augmentation-charges          233 (set IRDMAX)


--------------------------------------------------------------------------------------------------------


 First call to EWALD:  gamma=   0.230
 Maximum number of real-space cells 4x 2x 2
 Maximum number of reciprocal cells 2x 3x 3

 FEWALD executed in parallel
    FEWALD:  cpu time    0.00: real time    0.00


----------------------------------------- Iteration    1(   1)  ---------------------------------------


    POTLOK:  cpu time    0.06: real time    0.10
    SETDIJ:  cpu time    0.01: real time    0.01
     EDDAV:  cpu time   11.14: real time   11.15
       DOS:  cpu time    0.00: real time    0.00
    --------------------------------------------
      LOOP:  cpu time   11.22: real time   11.34

 eigenvalue-minimisations  : 11792
 total energy-change (2. order) : 0.5269919E+04  (-0.1507788E+05)
 number of electron     304.0000000 magnetization       0.0000000
 augmentation part      304.0000000 magnetization       0.0000000

 Free energy of the ion-electron system (eV)
  ---------------------------------------------------
  alpha Z        PSCENC =      1440.96542060
  Ewald energy   TEWEN  =    -20121.69819548
  -Hartree energ DENC   =     -7502.91860269
  -exchange      EXHF   =         0.00000000
  -V(xc)+E(xc)   XCENC  =      1338.77550375
  PAW double counting   =     17874.86799540   -18115.18247447
  entropy T*S    EENTRO =        -0.00080713
  eigenvalues    EBANDS =      1752.01206318
  atomic energy  EATOM  =     28603.09830211
  ---------------------------------------------------
  free energy    TOTEN  =      5269.91920528 eV

  energy without entropy =     5269.92001241  energy(sigma->0) =     5269.91960884


--------------------------------------------------------------------------------------------------------




----------------------------------------- Iteration    1(   2)  ---------------------------------------


     EDDAV:  cpu time   11.16: real time   11.17
       DOS:  cpu time    0.00: real time    0.00
    --------------------------------------------
      LOOP:  cpu time   11.17: real time   11.18

 eigenvalue-minimisations  : 11776
 total energy-change (2. order) :-0.4611857E+04  (-0.4415908E+04)
 number of electron     304.0000000 magnetization       0.0000000
 augmentation part      304.0000000 magnetization       0.0000000

 Free energy of the ion-electron system (eV)
  ---------------------------------------------------
  alpha Z        PSCENC =      1440.96542060
  Ewald energy   TEWEN  =    -20121.69819548
  -Hartree energ DENC   =     -7502.91860269
  -exchange      EXHF   =         0.00000000
  -V(xc)+E(xc)   XCENC  =      1338.77550375
  PAW double counting   =     17874.86799540   -18115.18247447
  entropy T*S    EENTRO =        -0.00068275
  eigenvalues    EBANDS =     -2859.84528635
  atomic energy  EATOM  =     28603.09830211
  ---------------------------------------------------
  free energy    TOTEN  =       658.06198013 eV

  energy without entropy =      658.06266288  energy(sigma->0) =      658.06232151


--------------------------------------------------------------------------------------------------------




----------------------------------------- Iteration    1(   3)  ---------------------------------------


     EDDAV:  cpu time   13.36: real time   13.36
       DOS:  cpu time    0.00: real time    0.00
    --------------------------------------------
      LOOP:  cpu time   13.36: real time   13.67

 eigenvalue-minimisations  : 14984
 total energy-change (2. order) :-0.8614382E+03  (-0.7901968E+03)
 number of electron     304.0000000 magnetization       0.0000000
 augmentation part      304.0000000 magnetization       0.0000000

 Free energy of the ion-electron system (eV)
  ---------------------------------------------------
  alpha Z        PSCENC =      1440.96542060
  Ewald energy   TEWEN  =    -20121.69819548
  -Hartree energ DENC   =     -7502.91860269
  -exchange      EXHF   =         0.00000000
  -V(xc)+E(xc)   XCENC  =      1338.77550375
  PAW double counting   =     17874.86799540   -18115.18247447
  entropy T*S    EENTRO =        -0.00114774
  eigenvalues    EBANDS =     -3721.28300699
  atomic energy  EATOM  =     28603.09830211
  ---------------------------------------------------
  free energy    TOTEN  =      -203.37620550 eV

  energy without entropy =     -203.37505776  energy(sigma->0) =     -203.37563163


--------------------------------------------------------------------------------------------------------




----------------------------------------- Iteration    1(   4)  ---------------------------------------


     EDDAV:  cpu time   15.11: real time   15.11
       DOS:  cpu time    0.00: real time    0.00
    --------------------------------------------
      LOOP:  cpu time   15.12: real time   15.13

 eigenvalue-minimisations  : 17208
 total energy-change (2. order) :-0.1065419E+03  (-0.1045097E+03)
 number of electron     304.0000000 magnetization       0.0000000
 augmentation part      304.0000000 magnetization       0.0000000

 Free energy of the ion-electron system (eV)
  ---------------------------------------------------
  alpha Z        PSCENC =      1440.96542060
  Ewald energy   TEWEN  =    -20121.69819548
  -Hartree energ DENC   =     -7502.91860269
  -exchange      EXHF   =         0.00000000
  -V(xc)+E(xc)   XCENC  =      1338.77550375
  PAW double counting   =     17874.86799540   -18115.18247447
  entropy T*S    EENTRO =        -0.00037637
  eigenvalues    EBANDS =     -3827.82567108
  atomic energy  EATOM  =     28603.09830211
  ---------------------------------------------------
  free energy    TOTEN  =      -309.91809822 eV

  energy without entropy =     -309.91772185  energy(sigma->0) =     -309.91791003


--------------------------------------------------------------------------------------------------------




----------------------------------------- Iteration    1(   5)  ---------------------------------------


     EDDAV:  cpu time   19.20: real time   19.20
       DOS:  cpu time    0.00: real time    0.00
    CHARGE:  cpu time    0.24: real time    0.24
    MIXING:  cpu time    0.00: real time    0.00
    --------------------------------------------
      LOOP:  cpu time   19.45: real time   19.46

 eigenvalue-minimisations  : 22880
 total energy-change (2. order) :-0.8947967E+01  (-0.8885805E+01)
 number of electron     303.9999702 magnetization      -0.0000000
 augmentation part       84.5572462 magnetization      -0.0000000

 Broyden mixing:
  rms(total) = 0.52259E+01    rms(broyden)= 0.52253E+01
  rms(prec ) = 0.72517E+01
  weight for this iteration     100.00

 Free energy of the ion-electron system (eV)
  ---------------------------------------------------
  alpha Z        PSCENC =      1440.96542060
  Ewald energy   TEWEN  =    -20121.69819548
  -Hartree energ DENC   =     -7502.91860269
  -exchange      EXHF   =         0.00000000
  -V(xc)+E(xc)   XCENC  =      1338.77550375
  PAW double counting   =     17874.86799540   -18115.18247447
  entropy T*S    EENTRO =        -0.00071955
  eigenvalues    EBANDS =     -3836.77329460
  atomic energy  EATOM  =     28603.09830211
  ---------------------------------------------------
  free energy    TOTEN  =      -318.86606492 eV

  energy without entropy =     -318.86534537  energy(sigma->0) =     -318.86570514


--------------------------------------------------------------------------------------------------------




----------------------------------------- Iteration    1(   6)  ---------------------------------------


    POTLOK:  cpu time    0.05: real time    0.05
    SETDIJ:  cpu time    0.01: real time    0.01
     EDDAV:  cpu time   16.32: real time   16.32
       DOS:  cpu time    0.00: real time    0.00
    CHARGE:  cpu time    0.24: real time    0.24
    MIXING:  cpu time    0.00: real time    0.00
    --------------------------------------------
      LOOP:  cpu time   16.62: real time   16.63

 eigenvalue-minimisations  : 18904
 total energy-change (2. order) : 0.6577429E+02  (-0.3591560E+02)
 number of electron     303.9999722 magnetization      -0.0000000
 augmentation part       85.9012088 magnetization      -0.0000000

 Broyden mixing:
  rms(total) = 0.21275E+01    rms(broyden)= 0.21263E+01
  rms(prec ) = 0.25269E+01
  weight for this iteration     100.00

 eigenvalues of (default mixing * dielectric matrix)
  average eigenvalue GAMMA=   0.7382
  0.7382

 Free energy of the ion-electron system (eV)
  ---------------------------------------------------
  alpha Z        PSCENC =      1440.96542060
  Ewald energy   TEWEN  =    -20121.69819548
  -Hartree energ DENC   =     -7443.62737135
  -exchange      EXHF   =         0.00000000
  -V(xc)+E(xc)   XCENC  =      1348.31908580
  PAW double counting   =     18154.51839859   -18410.20286686
  entropy T*S    EENTRO =        -0.00200677
  eigenvalues    EBANDS =     -3824.46254363
  atomic energy  EATOM  =     28603.09830211
  ---------------------------------------------------
  free energy    TOTEN  =      -253.09177698 eV

  energy without entropy =     -253.08977020  energy(sigma->0) =     -253.09077359


--------------------------------------------------------------------------------------------------------




----------------------------------------- Iteration    1(   7)  ---------------------------------------


    POTLOK:  cpu time    0.05: real time    0.05
    SETDIJ:  cpu time    0.01: real time    0.01
     EDDAV:  cpu time   15.46: real time   15.46
       DOS:  cpu time    0.00: real time    0.00
    CHARGE:  cpu time    0.24: real time    0.24
    MIXING:  cpu time    0.00: real time    0.00
    --------------------------------------------
      LOOP:  cpu time   15.76: real time   15.78

 eigenvalue-minimisations  : 17640
 total energy-change (2. order) :-0.5420950E+01  (-0.4721010E+01)
 number of electron     303.9999727 magnetization      -0.0000000
 augmentation part       84.8323571 magnetization      -0.0000000

 Broyden mixing:
  rms(total) = 0.18221E+01    rms(broyden)= 0.18221E+01
  rms(prec ) = 0.19405E+01
  weight for this iteration     100.00

 eigenvalues of (default mixing * dielectric matrix)
  average eigenvalue GAMMA=   0.4471
  0.7440  0.1502

 Free energy of the ion-electron system (eV)
  ---------------------------------------------------
  alpha Z        PSCENC =      1440.96542060
  Ewald energy   TEWEN  =    -20121.69819548
  -Hartree energ DENC   =     -7439.71443289
  -exchange      EXHF   =         0.00000000
  -V(xc)+E(xc)   XCENC  =      1342.41331865
  PAW double counting   =     18510.41679534   -18797.92736458
  entropy T*S    EENTRO =        -0.00137647
  eigenvalues    EBANDS =     -3796.06519465
  atomic energy  EATOM  =     28603.09830211
  ---------------------------------------------------
  free energy    TOTEN  =      -258.51272736 eV

  energy without entropy =     -258.51135090  energy(sigma->0) =     -258.51203913


--------------------------------------------------------------------------------------------------------




----------------------------------------- Iteration    1(   8)  ---------------------------------------


    POTLOK:  cpu time    0.05: real time    0.05
    SETDIJ:  cpu time    0.01: real time    0.01
     EDDAV:  cpu time   15.61: real time   15.61
       DOS:  cpu time    0.00: real time    0.00
    CHARGE:  cpu time    0.24: real time    0.24
    MIXING:  cpu time    0.00: real time    0.00
    --------------------------------------------
      LOOP:  cpu time   15.91: real time   15.92

 eigenvalue-minimisations  : 17936
 total energy-change (2. order) :-0.2551364E+01  (-0.5960394E+00)
 number of electron     303.9999727 magnetization      -0.0000000
 augmentation part       84.7623205 magnetization      -0.0000000

 Broyden mixing:
  rms(total) = 0.18651E+01    rms(broyden)= 0.18650E+01
  rms(prec ) = 0.19540E+01
  weight for this iteration     100.00

 eigenvalues of (default mixing * dielectric matrix)
  average eigenvalue GAMMA=   0.5343
  0.7079  0.4369  0.4580

 Free energy of the ion-electron system (eV)
  ---------------------------------------------------
  alpha Z        PSCENC =      1440.96542060
  Ewald energy   TEWEN  =    -20121.69819548
  -Hartree energ DENC   =     -7432.26183799
  -exchange      EXHF   =         0.00000000
  -V(xc)+E(xc)   XCENC  =      1341.20110609
  PAW double counting   =     18551.91004052   -18840.53352937
  entropy T*S    EENTRO =        -0.00002187
  eigenvalues    EBANDS =     -3803.74537571
  atomic energy  EATOM  =     28603.09830211
  ---------------------------------------------------
  free energy    TOTEN  =      -261.06409109 eV

  energy without entropy =     -261.06406921  energy(sigma->0) =     -261.06408015


--------------------------------------------------------------------------------------------------------




----------------------------------------- Iteration    1(   9)  ---------------------------------------


    POTLOK:  cpu time    0.05: real time    0.05
    SETDIJ:  cpu time    0.01: real time    0.01
     EDDAV:  cpu time   14.99: real time   14.99
       DOS:  cpu time    0.00: real time    0.00
    CHARGE:  cpu time    0.24: real time    0.24
    MIXING:  cpu time    0.00: real time    0.00
    --------------------------------------------
      LOOP:  cpu time   15.29: real time   15.30

 eigenvalue-minimisations  : 17040
 total energy-change (2. order) :-0.1123805E+00  (-0.1073673E+00)
 number of electron     303.9999729 magnetization      -0.0000000
 augmentation part       84.6563916 magnetization      -0.0000000

 Broyden mixing:
  rms(total) = 0.19704E+01    rms(broyden)= 0.19704E+01
  rms(prec ) = 0.20591E+01
  weight for this iteration     100.00

 eigenvalues of (default mixing * dielectric matrix)
  average eigenvalue GAMMA=   0.4557
  0.6086  0.7034  0.4494  0.0614

 Free energy of the ion-electron system (eV)
  ---------------------------------------------------
  alpha Z        PSCENC =      1440.96542060
  Ewald energy   TEWEN  =    -20121.69819548
  -Hartree energ DENC   =     -7432.44776027
  -exchange      EXHF   =         0.00000000
  -V(xc)+E(xc)   XCENC  =      1341.35837960
  PAW double counting   =     18546.17988062   -18832.51215422
  entropy T*S    EENTRO =        -0.00000000
  eigenvalues    EBANDS =     -3806.12034453
  atomic energy  EATOM  =     28603.09830211
  ---------------------------------------------------
  free energy    TOTEN  =      -261.17647156 eV

  energy without entropy =     -261.17647156  energy(sigma->0) =     -261.17647156


--------------------------------------------------------------------------------------------------------




----------------------------------------- Iteration    1(  10)  ---------------------------------------


    POTLOK:  cpu time    0.05: real time    0.05
    SETDIJ:  cpu time    0.01: real time    0.01
     EDDAV:  cpu time   15.10: real time   15.10
       DOS:  cpu time    0.00: real time    0.00
    CHARGE:  cpu time    0.24: real time    0.24
    MIXING:  cpu time    0.00: real time    0.00
    --------------------------------------------
      LOOP:  cpu time   15.40: real time   15.42

 eigenvalue-minimisations  : 17248
 total energy-change (2. order) :-0.1034024E+01  (-0.4318363E-01)
 number of electron     303.9999728 magnetization      -0.0000000
 augmentation part       84.5923757 magnetization      -0.0000000

 Broyden mixing:
  rms(total) = 0.17867E+01    rms(broyden)= 0.17867E+01
  rms(prec ) = 0.18728E+01
  weight for this iteration     100.00

 eigenvalues of (default mixing * dielectric matrix)
  average eigenvalue GAMMA=   0.7495
  1.0472  1.0472  0.6975  0.6975  0.2580

 Free energy of the ion-electron system (eV)
  ---------------------------------------------------
  alpha Z        PSCENC =      1440.96542060
  Ewald energy   TEWEN  =    -20121.69819548
  -Hartree energ DENC   =     -7434.87422688
  -exchange      EXHF   =         0.00000000
  -V(xc)+E(xc)   XCENC  =      1340.38058051
  PAW double counting   =     18594.30418539   -18882.75846554
  entropy T*S    EENTRO =        -0.00000000
  eigenvalues    EBANDS =     -3801.62809612
  atomic energy  EATOM  =     28603.09830211
  ---------------------------------------------------
  free energy    TOTEN  =      -262.21049540 eV

  energy without entropy =     -262.21049540  energy(sigma->0) =     -262.21049540


--------------------------------------------------------------------------------------------------------




----------------------------------------- Iteration    1(  11)  ---------------------------------------


    POTLOK:  cpu time    0.05: real time    0.05
    SETDIJ:  cpu time    0.01: real time    0.01
     EDDAV:  cpu time   15.02: real time   15.02
       DOS:  cpu time    0.00: real time    0.00
    CHARGE:  cpu time    0.24: real time    0.24
    MIXING:  cpu time    0.00: real time    0.00
    --------------------------------------------
      LOOP:  cpu time   15.32: real time   15.33

 eigenvalue-minimisations  : 17088
 total energy-change (2. order) :-0.3347999E+01  (-0.3494270E+00)
 number of electron     303.9999720 magnetization      -0.0000000
 augmentation part       84.5524080 magnetization      -0.0000000

 Broyden mixing:
  rms(total) = 0.87657E+00    rms(broyden)= 0.87652E+00
  rms(prec ) = 0.98252E+00
  weight for this iteration     100.00

 eigenvalues of (default mixing * dielectric matrix)
  average eigenvalue GAMMA=   0.7889
  1.1363  1.1363  0.7809  0.7809  0.6154  0.2838

 Free energy of the ion-electron system (eV)
  ---------------------------------------------------
  alpha Z        PSCENC =      1440.96542060
  Ewald energy   TEWEN  =    -20121.69819548
  -Hartree energ DENC   =     -7423.08657164
  -exchange      EXHF   =         0.00000000
  -V(xc)+E(xc)   XCENC  =      1335.31816290
  PAW double counting   =     18903.01046023   -19200.57518386
  entropy T*S    EENTRO =        -0.00000000
  eigenvalues    EBANDS =     -3802.59088911
  atomic energy  EATOM  =     28603.09830211
  ---------------------------------------------------
  free energy    TOTEN  =      -265.55849424 eV

  energy without entropy =     -265.55849424  energy(sigma->0) =     -265.55849424


--------------------------------------------------------------------------------------------------------




----------------------------------------- Iteration    1(  12)  ---------------------------------------


    POTLOK:  cpu time    0.05: real time    0.05
    SETDIJ:  cpu time    0.01: real time    0.01
     EDDAV:  cpu time   13.18: real time   13.18
       DOS:  cpu time    0.00: real time    0.00
    CHARGE:  cpu time    0.24: real time    0.24
    MIXING:  cpu time    0.00: real time    0.00
    --------------------------------------------
      LOOP:  cpu time   13.48: real time   13.49

 eigenvalue-minimisations  : 14560
 total energy-change (2. order) :-0.1626436E+01  (-0.2150292E+00)
 number of electron     303.9999719 magnetization      -0.0000000
 augmentation part       84.7320812 magnetization      -0.0000000

 Broyden mixing:
  rms(total) = 0.68475E+00    rms(broyden)= 0.68473E+00
  rms(prec ) = 0.76544E+00
  weight for this iteration     100.00

 eigenvalues of (default mixing * dielectric matrix)
  average eigenvalue GAMMA=   0.8240
  1.2038  1.2038  0.9006  0.9006  0.6402  0.6402  0.2790

 Free energy of the ion-electron system (eV)
  ---------------------------------------------------
  alpha Z        PSCENC =      1440.96542060
  Ewald energy   TEWEN  =    -20121.69819548
  -Hartree energ DENC   =     -7400.71012589
  -exchange      EXHF   =         0.00000000
  -V(xc)+E(xc)   XCENC  =      1334.12600062
  PAW double counting   =     19018.26865359   -19319.72856866
  entropy T*S    EENTRO =        -0.00000000
  eigenvalues    EBANDS =     -3821.50641685
  atomic energy  EATOM  =     28603.09830211
  ---------------------------------------------------
  free energy    TOTEN  =      -267.18492995 eV

  energy without entropy =     -267.18492995  energy(sigma->0) =     -267.18492995


--------------------------------------------------------------------------------------------------------




----------------------------------------- Iteration    1(  13)  ---------------------------------------


    POTLOK:  cpu time    0.05: real time    0.05
    SETDIJ:  cpu time    0.01: real time    0.01
     EDDAV:  cpu time   14.63: real time   14.62
       DOS:  cpu time    0.00: real time    0.00
    CHARGE:  cpu time    0.24: real time    0.24
    MIXING:  cpu time    0.00: real time    0.00
    --------------------------------------------
      LOOP:  cpu time   14.92: real time   14.94

 eigenvalue-minimisations  : 16568
 total energy-change (2. order) :-0.8237053E+00  (-0.7662657E-01)
 number of electron     303.9999719 magnetization      -0.0000000
 augmentation part       84.8247239 magnetization      -0.0000000

 Broyden mixing:
  rms(total) = 0.42340E+00    rms(broyden)= 0.42339E+00
  rms(prec ) = 0.47848E+00
  weight for this iteration     100.00

 eigenvalues of (default mixing * dielectric matrix)
  average eigenvalue GAMMA=   0.9143
  1.3879  1.3879  1.0791  1.0791  0.7089  0.7089  0.6829  0.2799

 Free energy of the ion-electron system (eV)
  ---------------------------------------------------
  alpha Z        PSCENC =      1440.96542060
  Ewald energy   TEWEN  =    -20121.69819548
  -Hartree energ DENC   =     -7391.97384982
  -exchange      EXHF   =         0.00000000
  -V(xc)+E(xc)   XCENC  =      1334.30340826
  PAW double counting   =     19075.72788658   -19378.00415487
  entropy T*S    EENTRO =        -0.00000000
  eigenvalues    EBANDS =     -3830.42745263
  atomic energy  EATOM  =     28603.09830211
  ---------------------------------------------------
  free energy    TOTEN  =      -268.00863523 eV

  energy without entropy =     -268.00863523  energy(sigma->0) =     -268.00863523


--------------------------------------------------------------------------------------------------------




----------------------------------------- Iteration    1(  14)  ---------------------------------------


    POTLOK:  cpu time    0.05: real time    0.05
    SETDIJ:  cpu time    0.01: real time    0.01
     EDDAV:  cpu time   13.99: real time   13.99
       DOS:  cpu time    0.00: real time    0.00
    CHARGE:  cpu time    0.24: real time    0.24
    MIXING:  cpu time    0.00: real time    0.00
    --------------------------------------------
      LOOP:  cpu time   14.29: real time   14.30

 eigenvalue-minimisations  : 15752
 total energy-change (2. order) :-0.2738790E+00  (-0.4253411E-01)
 number of electron     303.9999720 magnetization      -0.0000000
 augmentation part       84.8558839 magnetization      -0.0000000

 Broyden mixing:
  rms(total) = 0.24817E+00    rms(broyden)= 0.24816E+00
  rms(prec ) = 0.27051E+00
  weight for this iteration     100.00

 eigenvalues of (default mixing * dielectric matrix)
  average eigenvalue GAMMA=   1.0227
  1.9222  1.9222  1.0861  1.0861  0.2798  0.7398  0.7398  0.7141  0.7141

 Free energy of the ion-electron system (eV)
  ---------------------------------------------------
  alpha Z        PSCENC =      1440.96542060
  Ewald energy   TEWEN  =    -20121.69819548
  -Hartree energ DENC   =     -7393.95554778
  -exchange      EXHF   =         0.00000000
  -V(xc)+E(xc)   XCENC  =      1334.98701440
  PAW double counting   =     19118.22241180   -19421.59695170
  entropy T*S    EENTRO =        -0.00000000
  eigenvalues    EBANDS =     -3828.30496820
  atomic energy  EATOM  =     28603.09830211
  ---------------------------------------------------
  free energy    TOTEN  =      -268.28251424 eV

  energy without entropy =     -268.28251424  energy(sigma->0) =     -268.28251424


--------------------------------------------------------------------------------------------------------




----------------------------------------- Iteration    1(  15)  ---------------------------------------


    POTLOK:  cpu time    0.05: real time    0.05
    SETDIJ:  cpu time    0.01: real time    0.01
     EDDAV:  cpu time   13.57: real time   13.57
       DOS:  cpu time    0.00: real time    0.00
    CHARGE:  cpu time    0.25: real time    0.25
    MIXING:  cpu time    0.00: real time    0.00
    --------------------------------------------
      LOOP:  cpu time   13.88: real time   13.89

 eigenvalue-minimisations  : 15048
 total energy-change (2. order) :-0.1319300E+00  (-0.1861748E-01)
 number of electron     303.9999720 magnetization      -0.0000000
 augmentation part       84.8387640 magnetization      -0.0000000

 Broyden mixing:
  rms(total) = 0.10244E+00    rms(broyden)= 0.10243E+00
  rms(prec ) = 0.10710E+00
  weight for this iteration     100.00

 eigenvalues of (default mixing * dielectric matrix)
  average eigenvalue GAMMA=   1.0798
  2.5680  1.8388  1.1074  1.1074  0.2798  0.7799  0.7799  0.8530  0.8530  0.6308

 Free energy of the ion-electron system (eV)
  ---------------------------------------------------
  alpha Z        PSCENC =      1440.96542060
  Ewald energy   TEWEN  =    -20121.69819548
  -Hartree energ DENC   =     -7395.86254283
  -exchange      EXHF   =         0.00000000
  -V(xc)+E(xc)   XCENC  =      1335.38824710
  PAW double counting   =     19174.39859118   -19478.36127087
  entropy T*S    EENTRO =        -0.00000000
  eigenvalues    EBANDS =     -3826.34299603
  atomic energy  EATOM  =     28603.09830211
  ---------------------------------------------------
  free energy    TOTEN  =      -268.41444421 eV

  energy without entropy =     -268.41444421  energy(sigma->0) =     -268.41444421


--------------------------------------------------------------------------------------------------------




----------------------------------------- Iteration    1(  16)  ---------------------------------------


    POTLOK:  cpu time    0.05: real time    0.05
    SETDIJ:  cpu time    0.01: real time    0.01
     EDDAV:  cpu time   13.07: real time   13.07
       DOS:  cpu time    0.00: real time    0.00
    CHARGE:  cpu time    0.24: real time    0.24
    MIXING:  cpu time    0.00: real time    0.00
    --------------------------------------------
      LOOP:  cpu time   13.37: real time   13.38

 eigenvalue-minimisations  : 14392
 total energy-change (2. order) :-0.5103783E-01  (-0.4751089E-02)
 number of electron     303.9999720 magnetization      -0.0000000
 augmentation part       84.8473702 magnetization      -0.0000000

 Broyden mixing:
  rms(total) = 0.44833E-01    rms(broyden)= 0.44829E-01
  rms(prec ) = 0.49743E-01
  weight for this iteration     100.00

 eigenvalues of (default mixing * dielectric matrix)
  average eigenvalue GAMMA=   1.0419
  2.2609  2.2609  1.1076  1.1076  0.2798  0.8347  0.8347  0.7683  0.7683  0.6828
  0.5556

 Free energy of the ion-electron system (eV)
  ---------------------------------------------------
  alpha Z        PSCENC =      1440.96542060
  Ewald energy   TEWEN  =    -20121.69819548
  -Hartree energ DENC   =     -7394.03206073
  -exchange      EXHF   =         0.00000000
  -V(xc)+E(xc)   XCENC  =      1335.15955460
  PAW double counting   =     19185.19996816   -19489.45789960
  entropy T*S    EENTRO =        -0.00000000
  eigenvalues    EBANDS =     -3827.70057171
  atomic energy  EATOM  =     28603.09830211
  ---------------------------------------------------
  free energy    TOTEN  =      -268.46548204 eV

  energy without entropy =     -268.46548204  energy(sigma->0) =     -268.46548204


--------------------------------------------------------------------------------------------------------




----------------------------------------- Iteration    1(  17)  ---------------------------------------


    POTLOK:  cpu time    0.05: real time    0.05
    SETDIJ:  cpu time    0.01: real time    0.01
     EDDAV:  cpu time   14.03: real time   14.03
       DOS:  cpu time    0.00: real time    0.00
    CHARGE:  cpu time    0.24: real time    0.24
    MIXING:  cpu time    0.00: real time    0.00
    --------------------------------------------
      LOOP:  cpu time   14.33: real time   14.34

 eigenvalue-minimisations  : 15208
 total energy-change (2. order) :-0.1813237E-01  (-0.1792097E-02)
 number of electron     303.9999720 magnetization      -0.0000000
 augmentation part       84.8654175 magnetization      -0.0000000

 Broyden mixing:
  rms(total) = 0.53521E-01    rms(broyden)= 0.53520E-01
  rms(prec ) = 0.59114E-01
  weight for this iteration     100.00

 eigenvalues of (default mixing * dielectric matrix)
  average eigenvalue GAMMA=   0.9906
  2.2935  2.2935  1.1079  1.1079  0.2798  0.8559  0.8559  0.7533  0.7533  0.6507
  0.4677  0.4677

 Free energy of the ion-electron system (eV)
  ---------------------------------------------------
  alpha Z        PSCENC =      1440.96542060
  Ewald energy   TEWEN  =    -20121.69819548
  -Hartree energ DENC   =     -7392.95425350
  -exchange      EXHF   =         0.00000000
  -V(xc)+E(xc)   XCENC  =      1335.09591870
  PAW double counting   =     19183.40555924   -19487.59496701
  entropy T*S    EENTRO =        -0.00000000
  eigenvalues    EBANDS =     -3828.80139909
  atomic energy  EATOM  =     28603.09830211
  ---------------------------------------------------
  free energy    TOTEN  =      -268.48361442 eV

  energy without entropy =     -268.48361442  energy(sigma->0) =     -268.48361442


--------------------------------------------------------------------------------------------------------




----------------------------------------- Iteration    1(  18)  ---------------------------------------


    POTLOK:  cpu time    0.05: real time    0.05
    SETDIJ:  cpu time    0.01: real time    0.01
     EDDAV:  cpu time   12.75: real time   12.77
       DOS:  cpu time    0.00: real time    0.00
    CHARGE:  cpu time    0.28: real time    0.28
    MIXING:  cpu time    0.00: real time    0.00
    --------------------------------------------
      LOOP:  cpu time   13.09: real time   13.12

 eigenvalue-minimisations  : 13832
 total energy-change (2. order) :-0.7418525E-02  (-0.5073980E-03)
 number of electron     303.9999720 magnetization      -0.0000000
 augmentation part       84.8678410 magnetization      -0.0000000

 Broyden mixing:
  rms(total) = 0.69727E-01    rms(broyden)= 0.69727E-01
  rms(prec ) = 0.76456E-01
  weight for this iteration     100.00

 eigenvalues of (default mixing * dielectric matrix)
  average eigenvalue GAMMA=   0.9800
  2.2869  2.2869  1.1075  1.1075  1.0783  1.0783  0.2798  0.7527  0.7527  0.6309
  0.6309  0.6007  0.1464

 Free energy of the ion-electron system (eV)
  ---------------------------------------------------
  alpha Z        PSCENC =      1440.96542060
  Ewald energy   TEWEN  =    -20121.69819548
  -Hartree energ DENC   =     -7392.94109694
  -exchange      EXHF   =         0.00000000
  -V(xc)+E(xc)   XCENC  =      1335.09570367
  PAW double counting   =     19183.41363543   -19487.59187355
  entropy T*S    EENTRO =        -0.00000000
  eigenvalues    EBANDS =     -3828.83292880
  atomic energy  EATOM  =     28603.09830211
  ---------------------------------------------------
  free energy    TOTEN  =      -268.49103294 eV

  energy without entropy =     -268.49103294  energy(sigma->0) =     -268.49103294


--------------------------------------------------------------------------------------------------------




----------------------------------------- Iteration    1(  19)  ---------------------------------------


    POTLOK:  cpu time    0.05: real time    0.05
    SETDIJ:  cpu time    0.01: real time    0.01
     EDDAV:  cpu time   14.58: real time   14.58
       DOS:  cpu time    0.00: real time    0.00
    CHARGE:  cpu time    0.25: real time    0.25
    MIXING:  cpu time    0.00: real time    0.00
    --------------------------------------------
      LOOP:  cpu time   14.90: real time   14.91

 eigenvalue-minimisations  : 16488
 total energy-change (2. order) : 0.5994659E-02  (-0.4254905E-03)
 number of electron     303.9999719 magnetization      -0.0000000
 augmentation part       84.8643631 magnetization      -0.0000000

 Broyden mixing:
  rms(total) = 0.86274E-01    rms(broyden)= 0.86274E-01
  rms(prec ) = 0.93281E-01
  weight for this iteration     100.00

 eigenvalues of (default mixing * dielectric matrix)
  average eigenvalue GAMMA=   0.9946
  2.4344  2.4344  1.1099  1.1099  1.1819  1.1819  0.2798  0.7502  0.7502  0.6689
  0.6689  0.6484  0.4945  0.2116

 Free energy of the ion-electron system (eV)
  ---------------------------------------------------
  alpha Z        PSCENC =      1440.96542060
  Ewald energy   TEWEN  =    -20121.69819548
  -Hartree energ DENC   =     -7392.85413995
  -exchange      EXHF   =         0.00000000
  -V(xc)+E(xc)   XCENC  =      1335.05587341
  PAW double counting   =     19183.49974306   -19487.58657402
  entropy T*S    EENTRO =        -0.00000000
  eigenvalues    EBANDS =     -3828.96546802
  atomic energy  EATOM  =     28603.09830211
  ---------------------------------------------------
  free energy    TOTEN  =      -268.48503828 eV

  energy without entropy =     -268.48503828  energy(sigma->0) =     -268.48503828


--------------------------------------------------------------------------------------------------------




----------------------------------------- Iteration    1(  20)  ---------------------------------------


    POTLOK:  cpu time    0.05: real time    0.05
    SETDIJ:  cpu time    0.01: real time    0.01
     EDDAV:  cpu time   12.98: real time   12.99
       DOS:  cpu time    0.00: real time    0.00
    CHARGE:  cpu time    0.24: real time    0.24
    MIXING:  cpu time    0.00: real time    0.00
    --------------------------------------------
      LOOP:  cpu time   13.29: real time   13.30

 eigenvalue-minimisations  : 14256
 total energy-change (2. order) : 0.1331661E-02  (-0.1599352E-03)
 number of electron     303.9999719 magnetization      -0.0000000
 augmentation part       84.8700530 magnetization      -0.0000000

 Broyden mixing:
  rms(total) = 0.90229E-01    rms(broyden)= 0.90229E-01
  rms(prec ) = 0.97199E-01
  weight for this iteration     100.00

 eigenvalues of (default mixing * dielectric matrix)
  average eigenvalue GAMMA=   1.0027
  2.4291  2.4291  1.1083  1.1083  1.2555  1.2555  0.2798  0.7348  0.7348  0.8089
  0.8089  0.6502  0.6502  0.5667  0.2206

 Free energy of the ion-electron system (eV)
  ---------------------------------------------------
  alpha Z        PSCENC =      1440.96542060
  Ewald energy   TEWEN  =    -20121.69819548
  -Hartree energ DENC   =     -7392.79482902
  -exchange      EXHF   =         0.00000000
  -V(xc)+E(xc)   XCENC  =      1335.09112442
  PAW double counting   =     19184.54423318   -19488.58204662
  entropy T*S    EENTRO =        -0.00000000
  eigenvalues    EBANDS =     -3829.10771583
  atomic energy  EATOM  =     28603.09830211
  ---------------------------------------------------
  free energy    TOTEN  =      -268.48370662 eV

  energy without entropy =     -268.48370662  energy(sigma->0) =     -268.48370662


--------------------------------------------------------------------------------------------------------




----------------------------------------- Iteration    1(  21)  ---------------------------------------


    POTLOK:  cpu time    0.05: real time    0.05
    SETDIJ:  cpu time    0.01: real time    0.01
     EDDAV:  cpu time   13.28: real time   13.28
       DOS:  cpu time    0.00: real time    0.00
    CHARGE:  cpu time    0.24: real time    0.24
    MIXING:  cpu time    0.00: real time    0.00
    --------------------------------------------
      LOOP:  cpu time   13.58: real time   13.59

 eigenvalue-minimisations  : 14768
 total energy-change (2. order) : 0.2767503E-02  (-0.5128217E-04)
 number of electron     303.9999719 magnetization      -0.0000000
 augmentation part       84.8688919 magnetization      -0.0000000

 Broyden mixing:
  rms(total) = 0.94346E-01    rms(broyden)= 0.94346E-01
  rms(prec ) = 0.10128E+00
  weight for this iteration     100.00

 eigenvalues of (default mixing * dielectric matrix)
  average eigenvalue GAMMA=   1.0247
  2.4434  2.4434  1.1089  1.1089  1.4141  1.4141  0.9719  0.9719  0.2798  0.7735
  0.7735  0.6805  0.6805  0.6211  0.4873  0.2222

 Free energy of the ion-electron system (eV)
  ---------------------------------------------------
  alpha Z        PSCENC =      1440.96542060
  Ewald energy   TEWEN  =    -20121.69819548
  -Hartree energ DENC   =     -7392.85396963
  -exchange      EXHF   =         0.00000000
  -V(xc)+E(xc)   XCENC  =      1335.09941878
  PAW double counting   =     19185.77176041   -19489.82522166
  entropy T*S    EENTRO =        -0.00000000
  eigenvalues    EBANDS =     -3829.03845426
  atomic energy  EATOM  =     28603.09830211
  ---------------------------------------------------
  free energy    TOTEN  =      -268.48093912 eV

  energy without entropy =     -268.48093912  energy(sigma->0) =     -268.48093912


--------------------------------------------------------------------------------------------------------




----------------------------------------- Iteration    1(  22)  ---------------------------------------


    POTLOK:  cpu time    0.05: real time    0.05
    SETDIJ:  cpu time    0.01: real time    0.01
     EDDAV:  cpu time   14.65: real time   14.65
       DOS:  cpu time    0.00: real time    0.00
    CHARGE:  cpu time    0.24: real time    0.24
    MIXING:  cpu time    0.00: real time    0.00
    --------------------------------------------
      LOOP:  cpu time   14.95: real time   14.97

 eigenvalue-minimisations  : 16360
 total energy-change (2. order) : 0.3890409E-02  (-0.3123259E-04)
 number of electron     303.9999719 magnetization      -0.0000000
 augmentation part       84.8696706 magnetization      -0.0000000

 Broyden mixing:
  rms(total) = 0.99204E-01    rms(broyden)= 0.99204E-01
  rms(prec ) = 0.10640E+00
  weight for this iteration     100.00

 eigenvalues of (default mixing * dielectric matrix)
  average eigenvalue GAMMA=   0.9995
  2.4971  2.3510  1.4905  1.4905  1.1090  1.1090  1.0114  1.0114  0.7747  0.7747
  0.2798  0.6765  0.6765  0.6099  0.4536  0.4536  0.2224

 Free energy of the ion-electron system (eV)
  ---------------------------------------------------
  alpha Z        PSCENC =      1440.96542060
  Ewald energy   TEWEN  =    -20121.69819548
  -Hartree energ DENC   =     -7392.88560233
  -exchange      EXHF   =         0.00000000
  -V(xc)+E(xc)   XCENC  =      1335.11346686
  PAW double counting   =     19186.47121943   -19490.53058250
  entropy T*S    EENTRO =        -0.00000000
  eigenvalues    EBANDS =     -3829.01107741
  atomic energy  EATOM  =     28603.09830211
  ---------------------------------------------------
  free energy    TOTEN  =      -268.47704871 eV

  energy without entropy =     -268.47704871  energy(sigma->0) =     -268.47704871


--------------------------------------------------------------------------------------------------------




----------------------------------------- Iteration    1(  23)  ---------------------------------------


    POTLOK:  cpu time    0.05: real time    0.05
    SETDIJ:  cpu time    0.01: real time    0.01
     EDDAV:  cpu time   13.37: real time   13.37
       DOS:  cpu time    0.00: real time    0.00
    CHARGE:  cpu time    0.24: real time    0.24
    MIXING:  cpu time    0.00: real time    0.00
    --------------------------------------------
      LOOP:  cpu time   13.67: real time   13.68

 eigenvalue-minimisations  : 14880
 total energy-change (2. order) : 0.3730165E-02  (-0.3565137E-04)
 number of electron     303.9999719 magnetization      -0.0000000
 augmentation part       84.8688815 magnetization      -0.0000000

 Broyden mixing:
  rms(total) = 0.10237E+00    rms(broyden)= 0.10237E+00
  rms(prec ) = 0.10985E+00
  weight for this iteration     100.00

 eigenvalues of (default mixing * dielectric matrix)
  average eigenvalue GAMMA=   1.1267
  3.1311  2.1729  2.1729  2.1428  1.1086  1.1086  1.2144  1.2144  0.2798  0.7324
  0.7324  0.7814  0.7814  0.6749  0.6749  0.6290  0.5059  0.2225

 Free energy of the ion-electron system (eV)
  ---------------------------------------------------
  alpha Z        PSCENC =      1440.96542060
  Ewald energy   TEWEN  =    -20121.69819548
  -Hartree energ DENC   =     -7392.88743550
  -exchange      EXHF   =         0.00000000
  -V(xc)+E(xc)   XCENC  =      1335.11721155
  PAW double counting   =     19186.58697235   -19490.65413381
  entropy T*S    EENTRO =        -0.00000000
  eigenvalues    EBANDS =     -3829.00146036
  atomic energy  EATOM  =     28603.09830211
  ---------------------------------------------------
  free energy    TOTEN  =      -268.47331855 eV

  energy without entropy =     -268.47331855  energy(sigma->0) =     -268.47331855


--------------------------------------------------------------------------------------------------------




----------------------------------------- Iteration    1(  24)  ---------------------------------------


    POTLOK:  cpu time    0.05: real time    0.05
    SETDIJ:  cpu time    0.01: real time    0.01
     EDDAV:  cpu time   14.25: real time   14.26
       DOS:  cpu time    0.00: real time    0.00
[...]
    OFIELD:  cpu time    0.00: real time    0.00

  FORCE on cell =-STRESS in cart. coord.  units (eV):
  Direction    XX          YY          ZZ          XY          YZ          ZX
  --------------------------------------------------------------------------------------
  Alpha Z  1442.12593  1442.12593  1442.12593
  Ewald   -5674.77085 -5633.26891 -8821.55277    -0.00008     0.00003  -135.00691
  Hartree  3248.44564  3185.29035   956.39529    -0.00001     0.00000   -14.21674
  E(xc)   -1502.81172 -1502.39846 -1503.89153    -0.00000     0.00000    -0.43660
  Local   -2575.94236 -2513.87570  2855.10758     0.00007    -0.00002   112.04109
  n-local -1058.82440 -1047.10985 -1060.46235     0.02349     0.01856   -10.53026
  augment  1158.94010  1140.57587  1154.27221     0.00000    -0.00000    16.02098
  Kinetic  4962.81235  4928.64212  4977.97856    -0.08572    -0.06234    32.12245
  Fock        0.00000     0.00000     0.00000     0.00000     0.00000     0.00000
  -------------------------------------------------------------------------------------
  Total      -0.02531    -0.01865    -0.02709     0.00000     0.00000    -0.00600
  in kB      -0.08898    -0.06557    -0.09524     0.00000     0.00000    -0.02108
  external pressure =       -0.08 kB  Pullay stress =        0.00 kB


 VOLUME and BASIS-vectors are now :
 -----------------------------------------------------------------------------
  energy-cutoff  :      600.00
  volume of cell :      455.71
      direct lattice vectors                 reciprocal lattice vectors
     5.238445056  0.000000000  0.061334076     0.190502775  0.000000000  0.033613968
     0.000000000  8.954213737  0.000000000     0.000000000  0.111679264  0.000000000
    -1.710743666  0.000000000  9.695416240    -0.001205138  0.000000000  0.102928878

  length of vectors
     5.238804107  8.954213737  9.845188670     0.193445615  0.111679264  0.102935933


 FORCES acting on ions
    electron-ion (+dipol)            ewald-force                    non-local-force                 convergence-correction
 -----------------------------------------------------------------------------------------------
   -.262E+02 -.182E+02 -.478E+01   0.256E+02 0.177E+02 0.481E+01   0.618E+00 0.447E+00 -.301E-01   -.317E-03 -.143E-03 -.566E-04
   0.262E+02 0.182E+02 0.478E+01   -.256E+02 -.177E+02 -.481E+01   -.618E+00 -.447E+00 0.301E-01   0.317E-03 0.143E-03 0.566E-04
   0.262E+02 -.182E+02 0.478E+01   -.256E+02 0.177E+02 -.481E+01   -.618E+00 0.447E+00 0.301E-01   0.317E-03 -.143E-03 0.566E-04
   -.262E+02 0.182E+02 -.478E+01   0.256E+02 -.177E+02 0.481E+01   0.618E+00 -.447E+00 -.301E-01   -.317E-03 0.143E-03 -.566E-04
   -.262E+02 -.182E+02 -.478E+01   0.256E+02 0.177E+02 0.481E+01   0.618E+00 0.447E+00 -.301E-01   -.317E-03 -.143E-03 -.566E-04
   0.262E+02 0.182E+02 0.478E+01   -.256E+02 -.177E+02 -.481E+01   -.618E+00 -.447E+00 0.301E-01   0.317E-03 0.143E-03 0.566E-04
   0.262E+02 -.182E+02 0.478E+01   -.256E+02 0.177E+02 -.481E+01   -.618E+00 0.447E+00 0.301E-01   0.317E-03 -.143E-03 0.566E-04
   -.262E+02 0.182E+02 -.478E+01   0.256E+02 -.177E+02 0.481E+01   0.618E+00 -.447E+00 -.301E-01   -.317E-03 0.143E-03 -.566E-04
   0.191E-04 0.110E-04 -.123E-04   0.775E-05 0.568E-06 -.955E-05   0.119E-21 -.106E-21 0.529E-22   -.447E-10 -.512E-10 0.531E-10
   0.217E-04 0.897E-05 -.122E-04   0.468E-05 0.432E-05 -.866E-05   -.794E-22 -.106E-21 0.529E-22   -.309E-10 -.843E-10 0.512E-10
   0.228E-04 0.879E-05 -.172E-04   -.905E-05 0.639E-05 0.151E-04   -.132E-21 -.132E-21 -.212E-21   -.167E-10 0.568E-10 -.691E-10
   0.202E-04 0.676E-05 -.173E-04   -.598E-05 0.101E-04 0.142E-04   0.794E-22 -.106E-21 -.212E-21   -.309E-10 0.227E-10 -.664E-10
   0.210E-04 -.296E+02 -.132E-04   -.696E-05 0.291E+02 -.394E-05   -.191E-20 0.450E+00 -.127E-20   0.297E-10 0.487E-04 0.101E-09
   0.214E-04 0.296E+02 -.950E-05   -.523E-05 -.291E+02 -.267E-05   0.847E-21 -.450E+00 0.000E+00   -.129E-10 -.487E-04 0.543E-10
   0.201E-04 -.296E+02 -.132E-04   -.218E-06 0.291E+02 -.799E-06   0.953E-21 0.450E+00 -.847E-21   0.316E-11 0.487E-04 0.645E-10
   0.205E-04 0.296E+02 -.959E-05   0.152E-05 -.291E+02 0.470E-06   -.212E-21 -.450E+00 -.424E-21   -.376E-10 -.487E-04 0.181E-10
   0.197E-04 0.294E+02 -.978E-05   0.761E-05 -.288E+02 -.240E-05   -.402E-20 -.657E+00 -.127E-20   -.375E-10 0.346E-04 0.291E-10
   0.193E-04 -.294E+02 -.129E-04   0.542E-05 0.288E+02 -.110E-05   0.529E-21 0.657E+00 0.000E+00   -.187E-10 -.346E-04 -.189E-10
   0.208E-04 0.294E+02 -.987E-05   -.593E-06 -.288E+02 -.373E-05   -.238E-20 -.657E+00 -.212E-21   0.328E-10 0.346E-04 0.496E-10
   0.204E-04 -.294E+02 -.130E-04   -.278E-05 0.288E+02 -.243E-05   -.206E-20 0.657E+00 -.169E-20   0.524E-10 -.346E-04 0.119E-11
   0.250E-04 0.635E+01 -.162E-04   -.122E-05 -.602E+01 -.144E-05   0.339E-20 -.324E+00 0.000E+00   0.377E-10 -.544E-04 0.612E-10
   0.246E-04 -.635E+01 -.115E-04   -.102E-06 0.602E+01 -.955E-06   0.254E-20 0.324E+00 0.000E+00   0.469E-10 0.544E-04 -.119E-10
   0.248E-04 0.635E+01 -.163E-04   0.748E-06 -.602E+01 -.824E-07   -.762E-20 -.324E+00 -.169E-19   0.450E-10 -.544E-04 0.369E-10
   0.244E-04 -.635E+01 -.117E-04   0.187E-05 0.602E+01 0.407E-06   0.847E-20 0.324E+00 0.339E-20   0.556E-10 0.544E-04 -.363E-10
   0.125E+03 -.215E+02 -.226E+03   -.133E+03 0.232E+02 0.239E+03   0.881E+01 -.169E+01 -.127E+02   0.105E-03 -.108E-03 -.319E-04
   -.125E+03 0.215E+02 0.226E+03   0.133E+03 -.232E+02 -.239E+03   -.881E+01 0.169E+01 0.127E+02   -.105E-03 0.108E-03 0.319E-04
   -.125E+03 -.215E+02 0.226E+03   0.133E+03 0.232E+02 -.239E+03   -.881E+01 -.169E+01 0.127E+02   -.105E-03 -.108E-03 0.319E-04
   0.125E+03 0.215E+02 -.226E+03   -.133E+03 -.232E+02 0.239E+03   0.881E+01 0.169E+01 -.127E+02   0.105E-03 0.108E-03 -.319E-04
   0.125E+03 -.215E+02 -.226E+03   -.133E+03 0.232E+02 0.239E+03   0.881E+01 -.169E+01 -.127E+02   0.105E-03 -.108E-03 -.319E-04
   -.125E+03 0.215E+02 0.226E+03   0.133E+03 -.232E+02 -.239E+03   -.881E+01 0.169E+01 0.127E+02   -.105E-03 0.108E-03 0.319E-04
   -.125E+03 -.215E+02 0.226E+03   0.133E+03 0.232E+02 -.239E+03   -.881E+01 -.169E+01 0.127E+02   -.105E-03 -.108E-03 0.319E-04
   0.125E+03 0.215E+02 -.226E+03   -.133E+03 -.232E+02 0.239E+03   0.881E+01 0.169E+01 -.127E+02   0.105E-03 0.108E-03 -.319E-04
   -.372E+02 -.120E+03 -.215E+03   0.397E+02 0.129E+03 0.229E+03   -.247E+01 -.906E+01 -.139E+02   -.175E-03 -.930E-04 -.485E-04
   0.372E+02 0.120E+03 0.215E+03   -.397E+02 -.129E+03 -.229E+03   0.247E+01 0.906E+01 0.139E+02   0.175E-03 0.930E-04 0.485E-04
   0.372E+02 -.120E+03 0.215E+03   -.397E+02 0.129E+03 -.229E+03   0.247E+01 -.906E+01 0.139E+02   0.175E-03 -.930E-04 0.485E-04
   -.372E+02 0.120E+03 -.215E+03   0.397E+02 -.129E+03 0.229E+03   -.247E+01 0.906E+01 -.139E+02   -.175E-03 0.930E-04 -.485E-04
   -.372E+02 -.120E+03 -.215E+03   0.397E+02 0.129E+03 0.229E+03   -.247E+01 -.906E+01 -.139E+02   -.175E-03 -.930E-04 -.485E-04
   0.372E+02 0.120E+03 0.215E+03   -.397E+02 -.129E+03 -.229E+03   0.247E+01 0.906E+01 0.139E+02   0.175E-03 0.930E-04 0.485E-04
   0.372E+02 -.120E+03 0.215E+03   -.397E+02 0.129E+03 -.229E+03   0.247E+01 -.906E+01 0.139E+02   0.175E-03 -.930E-04 0.485E-04
   -.372E+02 0.120E+03 -.215E+03   0.397E+02 -.129E+03 0.229E+03   -.247E+01 0.906E+01 -.139E+02   -.175E-03 0.930E-04 -.485E-04
   -.656E+02 0.115E+03 -.213E+03   0.701E+02 -.123E+03 0.227E+03   -.446E+01 0.816E+01 -.137E+02   -.218E-03 0.659E-04 -.466E-03
   0.656E+02 -.115E+03 0.213E+03   -.701E+02 0.123E+03 -.227E+03   0.446E+01 -.816E+01 0.137E+02   0.218E-03 -.659E-04 0.466E-03
   0.656E+02 0.115E+03 0.213E+03   -.701E+02 -.123E+03 -.227E+03   0.446E+01 0.816E+01 0.137E+02   0.218E-03 0.659E-04 0.466E-03
   -.656E+02 -.115E+03 -.213E+03   0.701E+02 0.123E+03 0.227E+03   -.446E+01 -.816E+01 -.137E+02   -.218E-03 -.659E-04 -.466E-03
   -.656E+02 0.115E+03 -.213E+03   0.701E+02 -.123E+03 0.227E+03   -.446E+01 0.816E+01 -.137E+02   -.218E-03 0.659E-04 -.466E-03
   0.656E+02 -.115E+03 0.213E+03   -.701E+02 0.123E+03 -.227E+03   0.446E+01 -.816E+01 0.137E+02   0.218E-03 -.659E-04 0.466E-03
   0.656E+02 0.115E+03 0.213E+03   -.701E+02 -.123E+03 -.227E+03   0.446E+01 0.816E+01 0.137E+02   0.218E-03 0.659E-04 0.466E-03
   -.656E+02 -.115E+03 -.213E+03   0.701E+02 0.123E+03 0.227E+03   -.446E+01 -.816E+01 -.137E+02   -.218E-03 -.659E-04 -.466E-03
 -----------------------------------------------------------------------------------------------
   0.186E-02 0.854E-03 -.142E-02   0.114E-12 -.142E-13 0.284E-12   0.000E+00 -.178E-14 0.178E-14   0.320E-09 0.152E-09 -.133E-08
 
 
 POSITION                                       TOTAL-FORCE (eV/Angst)
 -----------------------------------------------------------------------------------
      1.29871      0.73494      0.01597        -0.000702     -0.000494      0.000056
      2.22899      8.21928      9.74078         0.000702      0.000494     -0.000056
      3.08437      0.73494      4.89307         0.000702     -0.000494     -0.000056
      0.44334      8.21928      4.86368        -0.000702      0.000494      0.000056
      3.91793      5.21204      0.04664        -0.000702     -0.000494      0.000056
     -0.39023      3.74217      9.71011         0.000702      0.000494     -0.000056
      0.46514      5.21204      4.86241         0.000702     -0.000494     -0.000056
      3.06256      3.74217      4.89435        -0.000702      0.000494      0.000056
      0.45424      2.23855      4.86304         0.000000     -0.000000      0.000000
      3.07346      6.71566      4.89371         0.000000     -0.000000      0.000000
      3.92883      2.23855      0.04600         0.000000     -0.000000      0.000000
      1.30961      6.71566      0.01533         0.000000     -0.000000      0.000000
     -0.42769      0.76483      2.42385         0.000000      0.000629      0.000000
     -1.28306      8.18938      7.27156         0.000000     -0.000629      0.000000
      2.19154      5.24194      2.45452         0.000000      0.000629      0.000000
      1.33616      3.71227      7.30223         0.000000     -0.000629      0.000000
     -0.42769      3.66227      2.42385         0.000000     -0.000161      0.000000
     -1.28306      5.29194      7.27156         0.000000      0.000161      0.000000
      2.19154      8.13938      2.45452         0.000000     -0.000161      0.000000
      1.33616      0.81483      7.30223         0.000000      0.000161      0.000000
     -0.42769      6.73882      2.42385         0.000000      0.000566      0.000000
     -1.28306      2.21540      7.27156         0.000000     -0.000566      0.000000
      2.19154      2.26171      2.45452         0.000000      0.000566      0.000000
      1.33616      6.69250      7.30223         0.000000     -0.000566      0.000000
      0.52901      2.17507      1.15921         0.000057      0.000112     -0.000114
      2.99869      6.77914      8.59754        -0.000057     -0.000112      0.000114
      3.85406      2.17507      3.74983        -0.000057      0.000112      0.000114
     -0.32636      6.77914      6.00692         0.000057     -0.000112     -0.000114
      3.14823      6.65218      1.18988         0.000057      0.000112     -0.000114
      0.37947      2.30203      8.56687        -0.000057     -0.000112      0.000114
      1.23484      6.65218      3.71917        -0.000057      0.000112      0.000114
      2.29286      2.30203      6.03758         0.000057     -0.000112     -0.000114
      0.42715      5.10486      1.13602         0.000237     -0.000132     -0.000181
      3.10055      3.84935      8.62073        -0.000237      0.000132      0.000181
      3.95592      5.10486      3.77302        -0.000237     -0.000132      0.000181
     -0.42822      3.84935      5.98373         0.000237      0.000132     -0.000181
      3.04637      0.62775      1.16668         0.000237     -0.000132     -0.000181
      0.48133      8.32646      8.59007        -0.000237      0.000132      0.000181
      1.33670      0.62775      3.74236        -0.000237     -0.000132      0.000181
      2.19100      8.32646      6.01439         0.000237      0.000132     -0.000181
      0.38522      8.25602      1.13804         0.000163      0.000364      0.000218
      3.14248      0.69820      8.61871        -0.000163     -0.000364     -0.000218
      3.99785      8.25602      3.77101        -0.000163      0.000364     -0.000218
     -0.47015      0.69820      5.98574         0.000163     -0.000364      0.000218
      3.00444      3.77891      1.16870         0.000163      0.000364      0.000218
      0.52326      5.17530      8.58805        -0.000163     -0.000364     -0.000218
      1.37863      3.77891      3.74034        -0.000163      0.000364     -0.000218
      2.14907      5.17530      6.01641         0.000163     -0.000364      0.000218
 -----------------------------------------------------------------------------------
    total drift:                                0.001864      0.000854     -0.001425


--------------------------------------------------------------------------------------------------------



  FREE ENERGIE OF THE ION-ELECTRON SYSTEM (eV)
  ---------------------------------------------------
  free  energy   TOTEN  =      -268.63707573 eV

  energy  without entropy=     -268.63707573  energy(sigma->0) =     -268.63707573
 
 d Force = 0.4029048E-06[ 0.544E-07, 0.751E-06]  d Energy = 0.1053206E-05-0.650E-06
 d Force = 0.8612919E-01[ 0.861E-01, 0.861E-01]  d Ewald  = 0.9605763E-02 0.765E-01


--------------------------------------------------------------------------------------------------------


    POTLOK:  cpu time    0.06: real time    0.06


--------------------------------------------------------------------------------------------------------


 stress matrix after NEB project (eV)
     -0.02531      0.00000     -0.00600
      0.00000     -0.01865      0.00000
     -0.00600      0.00000     -0.02709
  FORCES: max atom, RMS     0.000861    0.000492
  FORCE total and by dimension    0.003410    0.000702
  Stress total and by dimension    0.042357    0.027090
 Quasi-Newton relaxation of ions (Broydens 2nd method)
  g(Force)  = 0.561E-06   g(Stress)= 0.180E-05

 retain information from N=  1 steps
 eigenvalues of (default step * inverse Hessian matrix)
  average eigenvalue of G=   0.1240
 eigenvalue spectrum of G is  0.1240


--------------------------------------------------------------------------------------------------------


  
 reached required accuracy - stopping structural energy minimisation
     LOOP+:  cpu time   46.46: real time   46.52
    4ORBIT:  cpu time    0.00: real time    0.00
 


 total charge     
 
# of ion     s       p       d       tot
----------------------------------------
  1        0.349   6.469   5.706  12.524
  2        0.349   6.469   5.706  12.524
  3        0.349   6.469   5.706  12.524
  4        0.349   6.469   5.706  12.524
  5        0.349   6.469   5.706  12.524
  6        0.349   6.469   5.706  12.524
  7        0.349   6.469   5.706  12.524
  8        0.349   6.469   5.706  12.524
  9        2.017   0.050   0.000   2.067
 10        2.017   0.050   0.000   2.067
 11        2.017   0.050   0.000   2.067
 12        2.017   0.050   0.000   2.067
 13        2.015   0.046   0.000   2.061
 14        2.015   0.046   0.000   2.061
 15        2.015   0.046   0.000   2.061
 16        2.015   0.046   0.000   2.061
 17        2.013   0.043   0.000   2.056
 18        2.013   0.043   0.000   2.056
 19        2.013   0.043   0.000   2.056
 20        2.013   0.043   0.000   2.056
 21        2.013   0.044   0.000   2.057
 22        2.013   0.044   0.000   2.057
 23        2.013   0.044   0.000   2.057
 24        2.013   0.044   0.000   2.057
 25        1.554   3.452   0.000   5.007
 26        1.554   3.452   0.000   5.007
 27        1.554   3.452   0.000   5.007
 28        1.554   3.452   0.000   5.007
 29        1.554   3.452   0.000   5.007
 30        1.554   3.452   0.000   5.007
 31        1.554   3.452   0.000   5.007
 32        1.554   3.452   0.000   5.007
 33        1.557   3.446   0.000   5.002
 34        1.557   3.446   0.000   5.002
 35        1.557   3.446   0.000   5.002
 36        1.557   3.446   0.000   5.002
 37        1.557   3.446   0.000   5.002
 38        1.557   3.446   0.000   5.002
 39        1.557   3.446   0.000   5.002
 40        1.557   3.446   0.000   5.002
 41        1.555   3.444   0.000   4.998
 42        1.555   3.444   0.000   4.998
 43        1.555   3.444   0.000   4.998
 44        1.555   3.444   0.000   4.998
 45        1.555   3.444   0.000   4.998
 46        1.555   3.444   0.000   4.998
 47        1.555   3.444   0.000   4.998
 48        1.555   3.444   0.000   4.998
------------------------------------------------
tot       72.350 135.215  45.645 253.211
 


 magnetization (x)
 
# of ion     s       p       d       tot
----------------------------------------
  1        0.014   0.012   1.659   1.686
  2        0.014   0.012   1.659   1.686
  3       -0.014  -0.012  -1.659  -1.686
  4       -0.014  -0.012  -1.659  -1.686
  5        0.014   0.012   1.659   1.686
  6        0.014   0.012   1.659   1.686
  7       -0.014  -0.012  -1.659  -1.686
  8       -0.014  -0.012  -1.659  -1.686
  9       -0.003  -0.001   0.000  -0.004
 10       -0.003  -0.001   0.000  -0.004
 11        0.003   0.001   0.000   0.004
 12        0.003   0.001   0.000   0.004
 13       -0.000   0.000   0.000  -0.000
 14       -0.000   0.000   0.000  -0.000
 15       -0.000   0.000   0.000  -0.000
 16       -0.000   0.000   0.000  -0.000
 17        0.000   0.000   0.000   0.000
 18        0.000   0.000   0.000   0.000
 19        0.000   0.000   0.000   0.000
 20        0.000   0.000   0.000   0.000
 21       -0.000   0.000   0.000  -0.000
 22       -0.000   0.000   0.000  -0.000
 23       -0.000   0.000   0.000  -0.000
 24       -0.000   0.000   0.000  -0.000
 25        0.002   0.095   0.000   0.097
 26        0.002   0.095   0.000   0.097
 27       -0.002  -0.095   0.000  -0.097
 28       -0.002  -0.095   0.000  -0.097
 29        0.002   0.095   0.000   0.097
 30        0.002   0.095   0.000   0.097
 31       -0.002  -0.095   0.000  -0.097
 32       -0.002  -0.095   0.000  -0.097
 33        0.002   0.104   0.000   0.106
 34        0.002   0.104   0.000   0.106
 35       -0.002  -0.104   0.000  -0.106
 36       -0.002  -0.104   0.000  -0.106
 37        0.002   0.104   0.000   0.106
 38        0.002   0.104   0.000   0.106
 39       -0.002  -0.104   0.000  -0.106
 40       -0.002  -0.104   0.000  -0.106
 41        0.001   0.048   0.000   0.049
 42        0.001   0.048   0.000   0.049
 43       -0.001  -0.048   0.000  -0.049
 44       -0.001  -0.048   0.000  -0.049
 45        0.001   0.048   0.000   0.049
 46        0.001   0.048   0.000   0.049
 47       -0.001  -0.048   0.000  -0.049
 48       -0.001  -0.048   0.000  -0.049
------------------------------------------------
tot       -0.000   0.001  -0.001   0.000
 

 total amount of memory used by VASP on root node    63176. kBytes
========================================================================

   base      :      30000. kBytes
   nonl-proj :       7372. kBytes
   fftplans  :        670. kBytes
   grid      :       1678. kBytes
   one-center:         93. kBytes
   wavefun   :      23363. kBytes
 
  
  
 General timing and accounting informations for this job:
 ========================================================
  
                  Total CPU time used (sec):     2345.159
                            User time (sec):     2059.748
                          System time (sec):      285.412
                         Elapsed time (sec):     2352.199
  
                   Maximum memory used (kb):      163660.
                   Average memory used (kb):           0.
  
                          Minor page faults:    131245380
                          Major page faults:          144
                 Voluntary context switches:        13207
