  48  48   1   0
  0.9494047E+01  0.5238804E-09  0.8954214E-09  0.9845189E-09  0.5000000E-15
  1.000000000000000E-004
  CAR 
 Li2RuO3                                 
     15.37546479    -43.76890843  301      4.18732086      1.00000000
    -43.769  0.0000E+00  0.0000E+00  0.0000E+00  0.0000E+00
    -43.572  0.0000E+00  0.0000E+00  0.0000E+00  0.0000E+00
    -43.375  0.0000E+00  0.0000E+00  0.0000E+00  0.0000E+00
    -43.177  0.0000E+00  0.0000E+00  0.0000E+00  0.0000E+00
    -42.980  0.0000E+00  0.0000E+00  0.0000E+00  0.0000E+00
    -42.783  0.0000E+00  0.0000E+00  0.0000E+00  0.0000E+00
    -42.586  0.0000E+00  0.0000E+00  0.0000E+00  0.0000E+00
    -42.389  0.0000E+00  0.0000E+00  0.0000E+00  0.0000E+00
    -42.192  0.0000E+00  0.0000E+00  0.0000E+00  0.0000E+00
    -41.995  0.0000E+00  0.0000E+00  0.0000E+00  0.0000E+00
    -41.797  0.0000E+00  0.0000E+00  0.0000E+00  0.0000E+00
    -41.600  0.0000E+00  0.0000E+00  0.0000E+00  0.0000E+00
    -41.403  0.0000E+00  0.0000E+00  0.0000E+00  0.0000E+00
    -41.206  0.0000E+00  0.0000E+00  0.0000E+00  0.0000E+00
    -41.009  0.3140E+02  0.3252E+02  0.2596E+01  0.2542E+01
    -40.812  0.0000E+00  0.0000E+00  0.4000E+01  0.4000E+01
    -40.615  0.0000E+00  0.0000E+00  0.4000E+01  0.4000E+01
    -40.417  0.0000E+00  0.0000E+00  0.1200E+02  0.1200E+02
    -40.220  0.0000E+00  0.0000E+00  0.2000E+02  0.2000E+02
    -40.023  0.1585E+03  0.1475E+03  0.2313E+02  0.2317E+02
    -39.826  0.0000E+00  0.0000E+00  0.2800E+02  0.2800E+02
    -39.629  0.0000E+00  0.0000E+00  0.2800E+02  0.2800E+02
    -39.432  0.0000E+00  0.0000E+00  0.2800E+02  0.2800E+02
    -39.235  0.0000E+00  0.0000E+00  0.3200E+02  0.3200E+02
    -39.037  0.0000E+00  0.0000E+00  0.3200E+02  0.3200E+02
    -38.840  0.0000E+00  0.0000E+00  0.4000E+02  0.4000E+02
    -38.643  0.0000E+00  0.0000E+00  0.4000E+02  0.4000E+02
    -38.446  0.0000E+00  0.0000E+00  0.4000E+02  0.4000E+02
    -38.249  0.0000E+00  0.0000E+00  0.4000E+02  0.4000E+02
    -38.052  0.0000E+00  0.0000E+00  0.4000E+02  0.4000E+02
    -37.854  0.0000E+00  0.0000E+00  0.4000E+02  0.4000E+02
    -37.657  0.0000E+00  0.0000E+00  0.4000E+02  0.4000E+02
    -37.460  0.0000E+00  0.0000E+00  0.4000E+02  0.4000E+02
    -37.263  0.0000E+00  0.0000E+00  0.4000E+02  0.4000E+02
    -37.066  0.0000E+00  0.0000E+00  0.4000E+02  0.4000E+02
    -36.869  0.0000E+00  0.0000E+00  0.4000E+02  0.4000E+02
    -36.672  0.0000E+00  0.0000E+00  0.4000E+02  0.4000E+02
    -36.474  0.0000E+00  0.0000E+00  0.4000E+02  0.4000E+02
    -36.277  0.0000E+00  0.0000E+00  0.4000E+02  0.4000E+02
    -36.080  0.0000E+00  0.0000E+00  0.4000E+02  0.4000E+02
    -35.883  0.0000E+00  0.0000E+00  0.4000E+02  0.4000E+02
    -35.686  0.0000E+00  0.0000E+00  0.4000E+02  0.4000E+02
    -35.489  0.0000E+00  0.0000E+00  0.4000E+02  0.4000E+02
    -35.292  0.0000E+00  0.0000E+00  0.4000E+02  0.4000E+02
    -35.094  0.0000E+00  0.0000E+00  0.4000E+02  0.4000E+02
    -34.897  0.0000E+00  0.0000E+00  0.4000E+02  0.4000E+02
    -34.700  0.0000E+00  0.0000E+00  0.4000E+02  0.4000E+02
    -34.503  0.0000E+00  0.0000E+00  0.4000E+02  0.4000E+02
    -34.306  0.0000E+00  0.0000E+00  0.4000E+02  0.4000E+02
    -34.109  0.0000E+00  0.0000E+00  0.4000E+02  0.4000E+02
    -33.912  0.0000E+00  0.0000E+00  0.4000E+02  0.4000E+02
    -33.714  0.0000E+00  0.0000E+00  0.4000E+02  0.4000E+02
    -33.517  0.0000E+00  0.0000E+00  0.4000E+02  0.4000E+02
    -33.320  0.0000E+00  0.0000E+00  0.4000E+02  0.4000E+02
    -33.123  0.0000E+00  0.0000E+00  0.4000E+02  0.4000E+02
    -32.926  0.0000E+00  0.0000E+00  0.4000E+02  0.4000E+02
    -32.729  0.0000E+00  0.0000E+00  0.4000E+02  0.4000E+02
    -32.531  0.0000E+00  0.0000E+00  0.4000E+02  0.4000E+02
    -32.334  0.0000E+00  0.0000E+00  0.4000E+02  0.4000E+02
    -32.137  0.0000E+00  0.0000E+00  0.4000E+02  0.4000E+02
    -31.940  0.0000E+00  0.0000E+00  0.4000E+02  0.4000E+02
    -31.743  0.0000E+00  0.0000E+00  0.4000E+02  0.4000E+02
    -31.546  0.0000E+00  0.0000E+00  0.4000E+02  0.4000E+02
    -31.349  0.0000E+00  0.0000E+00  0.4000E+02  0.4000E+02
    -31.151  0.0000E+00  0.0000E+00  0.4000E+02  0.4000E+02
    -30.954  0.0000E+00  0.0000E+00  0.4000E+02  0.4000E+02
    -30.757  0.0000E+00  0.0000E+00  0.4000E+02  0.4000E+02
    -30.560  0.0000E+00  0.0000E+00  0.4000E+02  0.4000E+02
    -30.363  0.0000E+00  0.0000E+00  0.4000E+02  0.4000E+02
    -30.166  0.0000E+00  0.0000E+00  0.4000E+02  0.4000E+02
    -29.969  0.0000E+00  0.0000E+00  0.4000E+02  0.4000E+02
    -29.771  0.0000E+00  0.0000E+00  0.4000E+02  0.4000E+02
    -29.574  0.0000E+00  0.0000E+00  0.4000E+02  0.4000E+02
    -29.377  0.0000E+00  0.0000E+00  0.4000E+02  0.4000E+02
    -29.180  0.0000E+00  0.0000E+00  0.4000E+02  0.4000E+02
    -28.983  0.0000E+00  0.0000E+00  0.4000E+02  0.4000E+02
    -28.786  0.0000E+00  0.0000E+00  0.4000E+02  0.4000E+02
    -28.589  0.0000E+00  0.0000E+00  0.4000E+02  0.4000E+02
    -28.391  0.0000E+00  0.0000E+00  0.4000E+02  0.4000E+02
    -28.194  0.0000E+00  0.0000E+00  0.4000E+02  0.4000E+02
    -27.997  0.0000E+00  0.0000E+00  0.4000E+02  0.4000E+02
    -27.800  0.0000E+00  0.0000E+00  0.4000E+02  0.4000E+02
    -27.603  0.0000E+00  0.0000E+00  0.4000E+02  0.4000E+02
    -27.406  0.0000E+00  0.0000E+00  0.4000E+02  0.4000E+02
    -27.208  0.0000E+00  0.0000E+00  0.4000E+02  0.4000E+02
    -27.011  0.0000E+00  0.0000E+00  0.4000E+02  0.4000E+02
    -26.814  0.0000E+00  0.0000E+00  0.4000E+02  0.4000E+02
    -26.617  0.0000E+00  0.0000E+00  0.4000E+02  0.4000E+02
    -26.420  0.0000E+00  0.0000E+00  0.4000E+02  0.4000E+02
    -26.223  0.0000E+00  0.0000E+00  0.4000E+02  0.4000E+02
    -26.026  0.0000E+00  0.0000E+00  0.4000E+02  0.4000E+02
    -25.828  0.0000E+00  0.0000E+00  0.4000E+02  0.4000E+02
    -25.631  0.0000E+00  0.0000E+00  0.4000E+02  0.4000E+02
    -25.434  0.0000E+00  0.0000E+00  0.4000E+02  0.4000E+02
    -25.237  0.0000E+00  0.0000E+00  0.4000E+02  0.4000E+02
    -25.040  0.0000E+00  0.0000E+00  0.4000E+02  0.4000E+02
    -24.843  0.0000E+00  0.0000E+00  0.4000E+02  0.4000E+02
    -24.646  0.0000E+00  0.0000E+00  0.4000E+02  0.4000E+02
    -24.448  0.0000E+00  0.0000E+00  0.4000E+02  0.4000E+02
    -24.251  0.0000E+00  0.0000E+00  0.4000E+02  0.4000E+02
    -24.054  0.0000E+00  0.0000E+00  0.4000E+02  0.4000E+02
    -23.857  0.0000E+00  0.0000E+00  0.4000E+02  0.4000E+02
    -23.660  0.0000E+00  0.0000E+00  0.4000E+02  0.4000E+02
    -23.463  0.0000E+00  0.0000E+00  0.4000E+02  0.4000E+02
    -23.266  0.0000E+00  0.0000E+00  0.4000E+02  0.4000E+02
    -23.068  0.0000E+00  0.0000E+00  0.4000E+02  0.4000E+02
    -22.871  0.0000E+00  0.0000E+00  0.4000E+02  0.4000E+02
    -22.674  0.0000E+00  0.0000E+00  0.4000E+02  0.4000E+02
    -22.477  0.0000E+00  0.0000E+00  0.4000E+02  0.4000E+02
    -22.280  0.0000E+00  0.0000E+00  0.4000E+02  0.4000E+02
    -22.083  0.0000E+00  0.0000E+00  0.4000E+02  0.4000E+02
    -21.885  0.0000E+00  0.0000E+00  0.4000E+02  0.4000E+02
    -21.688  0.0000E+00  0.0000E+00  0.4000E+02  0.4000E+02
    -21.491  0.0000E+00  0.0000E+00  0.4000E+02  0.4000E+02
    -21.294  0.0000E+00  0.0000E+00  0.4000E+02  0.4000E+02
    -21.097  0.0000E+00  0.0000E+00  0.4000E+02  0.4000E+02
    -20.900  0.0000E+00  0.0000E+00  0.4000E+02  0.4000E+02
    -20.703  0.0000E+00  0.0000E+00  0.4000E+02  0.4000E+02
    -20.505  0.0000E+00  0.0000E+00  0.4000E+02  0.4000E+02
    -20.308  0.0000E+00  0.0000E+00  0.4000E+02  0.4000E+02
    -20.111  0.0000E+00  0.0000E+00  0.4000E+02  0.4000E+02
    -19.914  0.0000E+00  0.0000E+00  0.4000E+02  0.4000E+02
    -19.717  0.0000E+00  0.0000E+00  0.4000E+02  0.4000E+02
    -19.520  0.0000E+00  0.0000E+00  0.4000E+02  0.4000E+02
    -19.323  0.0000E+00  0.0000E+00  0.4000E+02  0.4000E+02
    -19.125  0.0000E+00  0.0000E+00  0.4000E+02  0.4000E+02
    -18.928  0.0000E+00  0.0000E+00  0.4000E+02  0.4000E+02
    -18.731  0.0000E+00  0.0000E+00  0.4000E+02  0.4000E+02
    -18.534  0.0000E+00  0.0000E+00  0.4000E+02  0.4000E+02
    -18.337  0.0000E+00  0.0000E+00  0.4000E+02  0.4000E+02
    -18.140  0.0000E+00  0.0000E+00  0.4000E+02  0.4000E+02
    -17.943  0.0000E+00  0.0000E+00  0.4000E+02  0.4000E+02
    -17.745  0.0000E+00  0.0000E+00  0.4000E+02  0.4000E+02
    -17.548  0.0000E+00  0.0000E+00  0.4000E+02  0.4000E+02
    -17.351  0.0000E+00  0.0000E+00  0.4000E+02  0.4000E+02
    -17.154  0.0000E+00  0.0000E+00  0.4000E+02  0.4000E+02
    -16.957  0.0000E+00  0.0000E+00  0.4000E+02  0.4000E+02
    -16.760  0.0000E+00  0.0000E+00  0.4000E+02  0.4000E+02
    -16.562  0.0000E+00  0.0000E+00  0.4000E+02  0.4000E+02
    -16.365  0.0000E+00  0.0000E+00  0.4000E+02  0.4000E+02
    -16.168  0.0000E+00  0.0000E+00  0.4000E+02  0.4000E+02
    -15.971  0.0000E+00  0.0000E+00  0.4000E+02  0.4000E+02
    -15.774  0.0000E+00  0.0000E+00  0.4000E+02  0.4000E+02
    -15.577  0.0000E+00  0.0000E+00  0.4000E+02  0.4000E+02
    -15.380  0.0000E+00  0.0000E+00  0.4000E+02  0.4000E+02
    -15.182  0.0000E+00  0.0000E+00  0.4000E+02  0.4000E+02
    -14.985  0.0000E+00  0.0000E+00  0.4000E+02  0.4000E+02
    -14.788  0.3012E+01  0.3011E+01  0.4014E+02  0.4014E+02
    -14.591  0.7437E+01  0.7254E+01  0.4093E+02  0.4092E+02
    -14.394  0.7726E+01  0.7850E+01  0.4262E+02  0.4264E+02
    -14.197  0.3025E+02  0.2268E+02  0.4475E+02  0.4486E+02
    -14.000  0.1313E+02  0.1203E+02  0.4729E+02  0.4736E+02
    -13.802  0.4296E+02  0.4823E+02  0.5281E+02  0.5284E+02
    -13.605  0.3428E+02  0.2988E+02  0.5939E+02  0.5931E+02
    -13.408  0.0000E+00  0.0000E+00  0.6400E+02  0.6400E+02
    -13.211  0.0000E+00  0.0000E+00  0.6400E+02  0.6400E+02
    -13.014  0.0000E+00  0.0000E+00  0.6400E+02  0.6400E+02
    -12.817  0.0000E+00  0.0000E+00  0.6400E+02  0.6400E+02
    -12.620  0.0000E+00  0.0000E+00  0.6400E+02  0.6400E+02
    -12.422  0.0000E+00  0.0000E+00  0.6400E+02  0.6400E+02
    -12.225  0.0000E+00  0.0000E+00  0.6400E+02  0.6400E+02
    -12.028  0.0000E+00  0.0000E+00  0.6400E+02  0.6400E+02
    -11.831  0.0000E+00  0.0000E+00  0.6400E+02  0.6400E+02
    -11.634  0.0000E+00  0.0000E+00  0.6400E+02  0.6400E+02
    -11.437  0.0000E+00  0.0000E+00  0.6400E+02  0.6400E+02
    -11.240  0.0000E+00  0.0000E+00  0.6400E+02  0.6400E+02
    -11.042  0.0000E+00  0.0000E+00  0.6400E+02  0.6400E+02
    -10.845  0.0000E+00  0.0000E+00  0.6400E+02  0.6400E+02
    -10.648  0.0000E+00  0.0000E+00  0.6400E+02  0.6400E+02
    -10.451  0.0000E+00  0.0000E+00  0.6400E+02  0.6400E+02
    -10.254  0.0000E+00  0.0000E+00  0.6400E+02  0.6400E+02
    -10.057  0.0000E+00  0.0000E+00  0.6400E+02  0.6400E+02
     -9.859  0.0000E+00  0.0000E+00  0.6400E+02  0.6400E+02
     -9.662  0.0000E+00  0.0000E+00  0.6400E+02  0.6400E+02
     -9.465  0.0000E+00  0.0000E+00  0.6400E+02  0.6400E+02
     -9.268  0.0000E+00  0.0000E+00  0.6400E+02  0.6400E+02
     -9.071  0.0000E+00  0.0000E+00  0.6400E+02  0.6400E+02
     -8.874  0.0000E+00  0.0000E+00  0.6400E+02  0.6400E+02
     -8.677  0.0000E+00  0.0000E+00  0.6400E+02  0.6400E+02
     -8.479  0.0000E+00  0.0000E+00  0.6400E+02  0.6400E+02
     -8.282  0.0000E+00  0.0000E+00  0.6400E+02  0.6400E+02
     -8.085  0.0000E+00  0.0000E+00  0.6400E+02  0.6400E+02
     -7.888  0.0000E+00  0.0000E+00  0.6400E+02  0.6400E+02
     -7.691  0.0000E+00  0.0000E+00  0.6400E+02  0.6400E+02
     -7.494  0.0000E+00  0.0000E+00  0.6400E+02  0.6400E+02
     -7.297  0.0000E+00  0.0000E+00  0.6400E+02  0.6400E+02
     -7.099  0.0000E+00  0.0000E+00  0.6400E+02  0.6400E+02
     -6.902  0.0000E+00  0.0000E+00  0.6400E+02  0.6400E+02
     -6.705  0.0000E+00  0.0000E+00  0.6400E+02  0.6400E+02
     -6.508  0.0000E+00  0.0000E+00  0.6400E+02  0.6400E+02
     -6.311  0.0000E+00  0.0000E+00  0.6400E+02  0.6400E+02
     -6.114  0.0000E+00  0.0000E+00  0.6400E+02  0.6400E+02
     -5.917  0.0000E+00  0.0000E+00  0.6400E+02  0.6400E+02
     -5.719  0.0000E+00  0.0000E+00  0.6400E+02  0.6400E+02
     -5.522  0.0000E+00  0.0000E+00  0.6400E+02  0.6400E+02
     -5.325  0.0000E+00  0.0000E+00  0.6400E+02  0.6400E+02
     -5.128  0.0000E+00  0.0000E+00  0.6400E+02  0.6400E+02
     -4.931  0.0000E+00  0.0000E+00  0.6400E+02  0.6400E+02
     -4.734  0.0000E+00  0.0000E+00  0.6400E+02  0.6400E+02
     -4.536  0.0000E+00  0.0000E+00  0.6400E+02  0.6400E+02
     -4.339  0.0000E+00  0.0000E+00  0.6400E+02  0.6400E+02
     -4.142  0.0000E+00  0.0000E+00  0.6400E+02  0.6400E+02
     -3.945  0.0000E+00  0.0000E+00  0.6400E+02  0.6400E+02
     -3.748  0.0000E+00  0.0000E+00  0.6400E+02  0.6400E+02
     -3.551  0.0000E+00  0.0000E+00  0.6400E+02  0.6400E+02
     -3.354  0.0000E+00  0.0000E+00  0.6400E+02  0.6400E+02
     -3.156  0.0000E+00  0.0000E+00  0.6400E+02  0.6400E+02
     -2.959  0.7191E+01  0.7645E+01  0.6488E+02  0.6486E+02
     -2.762  0.1379E+02  0.1439E+02  0.6629E+02  0.6636E+02
     -2.565  0.1790E+02  0.1804E+02  0.6832E+02  0.6826E+02
     -2.368  0.1119E+02  0.1097E+02  0.7098E+02  0.7093E+02
     -2.171  0.1101E+02  0.1122E+02  0.7237E+02  0.7235E+02
     -1.974  0.1109E+02  0.8173E+01  0.7423E+02  0.7421E+02
     -1.776  0.1140E+02  0.1321E+02  0.7785E+02  0.7784E+02
     -1.579  0.2131E+02  0.2553E+02  0.8163E+02  0.8155E+02
     -1.382  0.1666E+02  0.1848E+02  0.8530E+02  0.8539E+02
     -1.185  0.1998E+02  0.2085E+02  0.8890E+02  0.8896E+02
     -0.988  0.1482E+02  0.1313E+02  0.9230E+02  0.9229E+02
     -0.791  0.1378E+02  0.1269E+02  0.9492E+02  0.9500E+02
     -0.594  0.1116E+02  0.1135E+02  0.9738E+02  0.9738E+02
     -0.396  0.8422E+01  0.1046E+02  0.9985E+02  0.9983E+02
     -0.199  0.9425E+01  0.9257E+01  0.1017E+03  0.1017E+03
     -0.002  0.1009E+02  0.1030E+02  0.1036E+03  0.1037E+03
      0.195  0.1228E+02  0.1292E+02  0.1056E+03  0.1056E+03
      0.392  0.1279E+02  0.1424E+02  0.1082E+03  0.1083E+03
      0.589  0.1146E+02  0.9671E+01  0.1104E+03  0.1104E+03
      0.787  0.1158E+02  0.1151E+02  0.1125E+03  0.1124E+03
      0.984  0.2087E+02  0.1876E+02  0.1156E+03  0.1157E+03
      1.181  0.1733E+02  0.1734E+02  0.1194E+03  0.1196E+03
      1.378  0.1295E+02  0.1328E+02  0.1233E+03  0.1233E+03
      1.575  0.2125E+02  0.2281E+02  0.1267E+03  0.1268E+03
      1.772  0.1626E+02  0.1739E+02  0.1311E+03  0.1309E+03
      1.969  0.1528E+02  0.1357E+02  0.1345E+03  0.1345E+03
      2.167  0.8642E+01  0.9481E+01  0.1366E+03  0.1366E+03
      2.364  0.2036E+01  0.1817E+01  0.1378E+03  0.1378E+03
      2.561  0.2610E+02  0.2355E+02  0.1390E+03  0.1390E+03
      2.758  0.3031E+01  0.3442E+01  0.1419E+03  0.1419E+03
      2.955  0.7081E+01  0.7454E+01  0.1425E+03  0.1425E+03
      3.152  0.2082E+02  0.2576E+02  0.1458E+03  0.1457E+03
      3.349  0.1014E+02  0.9870E+01  0.1475E+03  0.1476E+03
      3.547  0.2501E+01  0.2387E+01  0.1480E+03  0.1480E+03
      3.744  0.1487E+01  0.1062E+01  0.1500E+03  0.1500E+03
      3.941  0.7098E+01  0.7650E+01  0.1506E+03  0.1506E+03
      4.138  0.0000E+00  0.0000E+00  0.1520E+03  0.1520E+03
      4.335  0.0000E+00  0.0000E+00  0.1520E+03  0.1520E+03
      4.532  0.5972E+01  0.5826E+01  0.1521E+03  0.1521E+03
      4.729  0.5084E+01  0.6096E+01  0.1534E+03  0.1534E+03
      4.927  0.1092E+02  0.1185E+02  0.1554E+03  0.1554E+03
      5.124  0.1051E+02  0.1097E+02  0.1568E+03  0.1568E+03
      5.321  0.7854E+01  0.5009E+01  0.1586E+03  0.1586E+03
      5.518  0.0000E+00  0.0000E+00  0.1600E+03  0.1600E+03
      5.715  0.0000E+00  0.0000E+00  0.1600E+03  0.1600E+03
      5.912  0.4266E+01  0.4179E+01  0.1613E+03  0.1613E+03
      6.110  0.1482E+02  0.1365E+02  0.1650E+03  0.1650E+03
      6.307  0.3471E+01  0.3773E+01  0.1662E+03  0.1663E+03
      6.504  0.3745E+01  0.3950E+01  0.1678E+03  0.1678E+03
      6.701  0.0000E+00  0.0000E+00  0.1680E+03  0.1680E+03
      6.898  0.8920E+01  0.5999E+01  0.1684E+03  0.1684E+03
      7.095  0.1099E+02  0.1335E+02  0.1714E+03  0.1714E+03
      7.292  0.0000E+00  0.0000E+00  0.1720E+03  0.1720E+03
      7.490  0.0000E+00  0.0000E+00  0.1720E+03  0.1720E+03
      7.687  0.3930E+01  0.2217E+01  0.1721E+03  0.1720E+03
      7.884  0.6200E+01  0.6747E+01  0.1731E+03  0.1732E+03
      8.081  0.9113E+01  0.7653E+01  0.1745E+03  0.1745E+03
      8.278  0.0000E+00  0.0000E+00  0.1760E+03  0.1760E+03
      8.475  0.0000E+00  0.0000E+00  0.1760E+03  0.1760E+03
      8.672  0.0000E+00  0.0000E+00  0.1760E+03  0.1760E+03
      8.870  0.0000E+00  0.0000E+00  0.1760E+03  0.1760E+03
      9.067  0.0000E+00  0.0000E+00  0.1760E+03  0.1760E+03
      9.264  0.2815E+00  0.2693E+00  0.1760E+03  0.1760E+03
      9.461  0.5013E+00  0.4856E+00  0.1761E+03  0.1761E+03
      9.658  0.6462E+00  0.6362E+00  0.1762E+03  0.1762E+03
      9.855  0.8109E+00  0.8194E+00  0.1764E+03  0.1764E+03
     10.052  0.1016E+01  0.1063E+01  0.1765E+03  0.1765E+03
     10.250  0.1288E+01  0.1342E+01  0.1767E+03  0.1768E+03
     10.447  0.1630E+01  0.1555E+01  0.1771E+03  0.1771E+03
     10.644  0.1695E+01  0.1728E+01  0.1774E+03  0.1774E+03
     10.841  0.2064E+01  0.2069E+01  0.1777E+03  0.1778E+03
     11.038  0.3018E+01  0.3030E+01  0.1782E+03  0.1782E+03
     11.235  0.4566E+01  0.4422E+01  0.1790E+03  0.1791E+03
     11.433  0.4419E+01  0.4348E+01  0.1800E+03  0.1800E+03
     11.630  0.4352E+01  0.4385E+01  0.1809E+03  0.1809E+03
     11.827  0.5405E+01  0.5890E+01  0.1819E+03  0.1819E+03
     12.024  0.3758E+01  0.3541E+01  0.1828E+03  0.1828E+03
     12.221  0.2877E+01  0.3103E+01  0.1835E+03  0.1835E+03
     12.418  0.1115E+01  0.1465E+01  0.1839E+03  0.1839E+03
     12.615  0.3100E-01  0.1738E-02  0.1840E+03  0.1840E+03
     12.813  0.0000E+00  0.0000E+00  0.1840E+03  0.1840E+03
     13.010  0.0000E+00  0.0000E+00  0.1840E+03  0.1840E+03
     13.207  0.0000E+00  0.0000E+00  0.1840E+03  0.1840E+03
     13.404  0.0000E+00  0.0000E+00  0.1840E+03  0.1840E+03
     13.601  0.0000E+00  0.0000E+00  0.1840E+03  0.1840E+03
     13.798  0.0000E+00  0.0000E+00  0.1840E+03  0.1840E+03
     13.995  0.0000E+00  0.0000E+00  0.1840E+03  0.1840E+03
     14.193  0.0000E+00  0.0000E+00  0.1840E+03  0.1840E+03
     14.390  0.0000E+00  0.0000E+00  0.1840E+03  0.1840E+03
     14.587  0.0000E+00  0.0000E+00  0.1840E+03  0.1840E+03
     14.784  0.0000E+00  0.0000E+00  0.1840E+03  0.1840E+03
     14.981  0.0000E+00  0.0000E+00  0.1840E+03  0.1840E+03
     15.178  0.0000E+00  0.0000E+00  0.1840E+03  0.1840E+03
     15.375  0.0000E+00  0.0000E+00  0.1840E+03  0.1840E+03
     15.37546479    -43.76890843  301      4.18732086      1.00000000
    -43.769  0.0000E+00  0.0000E+00  0.0000E+00  0.0000E+00  0.0000E+00  0.0000E+00
    -43.572  0.0000E+00  0.0000E+00  0.0000E+00  0.0000E+00  0.0000E+00  0.0000E+00
    -43.375  0.0000E+00  0.0000E+00  0.0000E+00  0.0000E+00  0.0000E+00  0.0000E+00
    -43.177  0.0000E+00  0.0000E+00  0.0000E+00  0.0000E+00  0.0000E+00  0.0000E+00
    -42.980  0.0000E+00  0.0000E+00  0.0000E+00  0.0000E+00  0.0000E+00  0.0000E+00
    -42.783  0.0000E+00  0.0000E+00  0.0000E+00  0.0000E+00  0.0000E+00  0.0000E+00
    -42.586  0.0000E+00  0.0000E+00  0.0000E+00  0.0000E+00  0.0000E+00  0.0000E+00
    -42.389  0.0000E+00  0.0000E+00  0.0000E+00  0.0000E+00  0.0000E+00  0.0000E+00
    -42.192  0.0000E+00  0.0000E+00  0.0000E+00  0.0000E+00  0.0000E+00  0.0000E+00
    -41.995  0.0000E+00  0.0000E+00  0.0000E+00  0.0000E+00  0.0000E+00  0.0000E+00
    -41.797  0.0000E+00  0.0000E+00  0.0000E+00  0.0000E+00  0.0000E+00  0.0000E+00
    -41.600  0.0000E+00  0.0000E+00  0.0000E+00  0.0000E+00  0.0000E+00  0.0000E+00
    -41.403  0.0000E+00  0.0000E+00  0.0000E+00  0.0000E+00  0.0000E+00  0.0000E+00
    -41.206  0.0000E+00  0.0000E+00  0.0000E+00  0.0000E+00  0.0000E+00  0.0000E+00
    -41.009  0.9372E-04  0.7751E-08  0.7773E+01  0.5416E-06  0.5576E-04  0.4034E-08
    -40.812  0.0000E+00  0.0000E+00  0.0000E+00  0.0000E+00  0.0000E+00  0.0000E+00
    -40.615  0.0000E+00  0.0000E+00  0.0000E+00  0.0000E+00  0.0000E+00  0.0000E+00
    -40.417  0.0000E+00  0.0000E+00  0.0000E+00  0.0000E+00  0.0000E+00  0.0000E+00
    -40.220  0.0000E+00  0.0000E+00  0.0000E+00  0.0000E+00  0.0000E+00  0.0000E+00
    -40.023  0.2229E-03  0.8493E-07  0.3914E+02  0.2635E-04  0.2765E-03  0.5242E-07
    -39.826  0.0000E+00  0.0000E+00  0.0000E+00  0.0000E+00  0.0000E+00  0.0000E+00
    -39.629  0.0000E+00  0.0000E+00  0.0000E+00  0.0000E+00  0.0000E+00  0.0000E+00
    -39.432  0.0000E+00  0.0000E+00  0.0000E+00  0.0000E+00  0.0000E+00  0.0000E+00
    -39.235  0.0000E+00  0.0000E+00  0.0000E+00  0.0000E+00  0.0000E+00  0.0000E+00
    -39.037  0.0000E+00  0.0000E+00  0.0000E+00  0.0000E+00  0.0000E+00  0.0000E+00
    -38.840  0.0000E+00  0.0000E+00  0.0000E+00  0.0000E+00  0.0000E+00  0.0000E+00
    -38.643  0.0000E+00  0.0000E+00  0.0000E+00  0.0000E+00  0.0000E+00  0.0000E+00
    -38.446  0.0000E+00  0.0000E+00  0.0000E+00  0.0000E+00  0.0000E+00  0.0000E+00
    -38.249  0.0000E+00  0.0000E+00  0.0000E+00  0.0000E+00  0.0000E+00  0.0000E+00
    -38.052  0.0000E+00  0.0000E+00  0.0000E+00  0.0000E+00  0.0000E+00  0.0000E+00
    -37.854  0.0000E+00  0.0000E+00  0.0000E+00  0.0000E+00  0.0000E+00  0.0000E+00
    -37.657  0.0000E+00  0.0000E+00  0.0000E+00  0.0000E+00  0.0000E+00  0.0000E+00
    -37.460  0.0000E+00  0.0000E+00  0.0000E+00  0.0000E+00  0.0000E+00  0.0000E+00
    -37.263  0.0000E+00  0.0000E+00  0.0000E+00  0.0000E+00  0.0000E+00  0.0000E+00
    -37.066  0.0000E+00  0.0000E+00  0.0000E+00  0.0000E+00  0.0000E+00  0.0000E+00
    -36.869  0.0000E+00  0.0000E+00  0.0000E+00  0.0000E+00  0.0000E+00  0.0000E+00
    -36.672  0.0000E+00  0.0000E+00  0.0000E+00  0.0000E+00  0.0000E+00  0.0000E+00
    -36.474  0.0000E+00  0.0000E+00  0.0000E+00  0.0000E+00  0.0000E+00  0.0000E+00
    -36.277  0.0000E+00  0.0000E+00  0.0000E+00  0.0000E+00  0.0000E+00  0.0000E+00
    -36.080  0.0000E+00  0.0000E+00  0.0000E+00  0.0000E+00  0.0000E+00  0.0000E+00
    -35.883  0.0000E+00  0.0000E+00  0.0000E+00  0.0000E+00  0.0000E+00  0.0000E+00
    -35.686  0.0000E+00  0.0000E+00  0.0000E+00  0.0000E+00  0.0000E+00  0.0000E+00
    -35.489  0.0000E+00  0.0000E+00  0.0000E+00  0.0000E+00  0.0000E+00  0.0000E+00
    -35.292  0.0000E+00  0.0000E+00  0.0000E+00  0.0000E+00  0.0000E+00  0.0000E+00
    -35.094  0.0000E+00  0.0000E+00  0.0000E+00  0.0000E+00  0.0000E+00  0.0000E+00
    -34.897  0.0000E+00  0.0000E+00  0.0000E+00  0.0000E+00  0.0000E+00  0.0000E+00
    -34.700  0.0000E+00  0.0000E+00  0.0000E+00  0.0000E+00  0.0000E+00  0.0000E+00
    -34.503  0.0000E+00  0.0000E+00  0.0000E+00  0.0000E+00  0.0000E+00  0.0000E+00
    -34.306  0.0000E+00  0.0000E+00  0.0000E+00  0.0000E+00  0.0000E+00  0.0000E+00
    -34.109  0.0000E+00  0.0000E+00  0.0000E+00  0.0000E+00  0.0000E+00  0.0000E+00
    -33.912  0.0000E+00  0.0000E+00  0.0000E+00  0.0000E+00  0.0000E+00  0.0000E+00
    -33.714  0.0000E+00  0.0000E+00  0.0000E+00  0.0000E+00  0.0000E+00  0.0000E+00
    -33.517  0.0000E+00  0.0000E+00  0.0000E+00  0.0000E+00  0.0000E+00  0.0000E+00
    -33.320  0.0000E+00  0.0000E+00  0.0000E+00  0.0000E+00  0.0000E+00  0.0000E+00
    -33.123  0.0000E+00  0.0000E+00  0.0000E+00  0.0000E+00  0.0000E+00  0.0000E+00
    -32.926  0.0000E+00  0.0000E+00  0.0000E+00  0.0000E+00  0.0000E+00  0.0000E+00
    -32.729  0.0000E+00  0.0000E+00  0.0000E+00  0.0000E+00  0.0000E+00  0.0000E+00
    -32.531  0.0000E+00  0.0000E+00  0.0000E+00  0.0000E+00  0.0000E+00  0.0000E+00
    -32.334  0.0000E+00  0.0000E+00  0.0000E+00  0.0000E+00  0.0000E+00  0.0000E+00
    -32.137  0.0000E+00  0.0000E+00  0.0000E+00  0.0000E+00  0.0000E+00  0.0000E+00
    -31.940  0.0000E+00  0.0000E+00  0.0000E+00  0.0000E+00  0.0000E+00  0.0000E+00
    -31.743  0.0000E+00  0.0000E+00  0.0000E+00  0.0000E+00  0.0000E+00  0.0000E+00
    -31.546  0.0000E+00  0.0000E+00  0.0000E+00  0.0000E+00  0.0000E+00  0.0000E+00
    -31.349  0.0000E+00  0.0000E+00  0.0000E+00  0.0000E+00  0.0000E+00  0.0000E+00
    -31.151  0.0000E+00  0.0000E+00  0.0000E+00  0.0000E+00  0.0000E+00  0.0000E+00
    -30.954  0.0000E+00  0.0000E+00  0.0000E+00  0.0000E+00  0.0000E+00  0.0000E+00
    -30.757  0.0000E+00  0.0000E+00  0.0000E+00  0.0000E+00  0.0000E+00  0.0000E+00
    -30.560  0.0000E+00  0.0000E+00  0.0000E+00  0.0000E+00  0.0000E+00  0.0000E+00
    -30.363  0.0000E+00  0.0000E+00  0.0000E+00  0.0000E+00  0.0000E+00  0.0000E+00
    -30.166  0.0000E+00  0.0000E+00  0.0000E+00  0.0000E+00  0.0000E+00  0.0000E+00
    -29.969  0.0000E+00  0.0000E+00  0.0000E+00  0.0000E+00  0.0000E+00  0.0000E+00
    -29.771  0.0000E+00  0.0000E+00  0.0000E+00  0.0000E+00  0.0000E+00  0.0000E+00
    -29.574  0.0000E+00  0.0000E+00  0.0000E+00  0.0000E+00  0.0000E+00  0.0000E+00
    -29.377  0.0000E+00  0.0000E+00  0.0000E+00  0.0000E+00  0.0000E+00  0.0000E+00
    -29.180  0.0000E+00  0.0000E+00  0.0000E+00  0.0000E+00  0.0000E+00  0.0000E+00
    -28.983  0.0000E+00  0.0000E+00  0.0000E+00  0.0000E+00  0.0000E+00  0.0000E+00
    -28.786  0.0000E+00  0.0000E+00  0.0000E+00  0.0000E+00  0.0000E+00  0.0000E+00
    -28.589  0.0000E+00  0.0000E+00  0.0000E+00  0.0000E+00  0.0000E+00  0.0000E+00
    -28.391  0.0000E+00  0.0000E+00  0.0000E+00  0.0000E+00  0.0000E+00  0.0000E+00
    -28.194  0.0000E+00  0.0000E+00  0.0000E+00  0.0000E+00  0.0000E+00  0.0000E+00
    -27.997  0.0000E+00  0.0000E+00  0.0000E+00  0.0000E+00  0.0000E+00  0.0000E+00
    -27.800  0.0000E+00  0.0000E+00  0.0000E+00  0.0000E+00  0.0000E+00  0.0000E+00
    -27.603  0.0000E+00  0.0000E+00  0.0000E+00  0.0000E+00  0.0000E+00  0.0000E+00
    -27.406  0.0000E+00  0.0000E+00  0.0000E+00  0.0000E+00  0.0000E+00  0.0000E+00
    -27.208  0.0000E+00  0.0000E+00  0.0000E+00  0.0000E+00  0.0000E+00  0.0000E+00
    -27.011  0.0000E+00  0.0000E+00  0.0000E+00  0.0000E+00  0.0000E+00  0.0000E+00
    -26.814  0.0000E+00  0.0000E+00  0.0000E+00  0.0000E+00  0.0000E+00  0.0000E+00
    -26.617  0.0000E+00  0.0000E+00  0.0000E+00  0.0000E+00  0.0000E+00  0.0000E+00
    -26.420  0.0000E+00  0.0000E+00  0.0000E+00  0.0000E+00  0.0000E+00  0.0000E+00
    -26.223  0.0000E+00  0.0000E+00  0.0000E+00  0.0000E+00  0.0000E+00  0.0000E+00
    -26.026  0.0000E+00  0.0000E+00  0.0000E+00  0.0000E+00  0.0000E+00  0.0000E+00
    -25.828  0.0000E+00  0.0000E+00  0.0000E+00  0.0000E+00  0.0000E+00  0.0000E+00
    -25.631  0.0000E+00  0.0000E+00  0.0000E+00  0.0000E+00  0.0000E+00  0.0000E+00
    -25.434  0.0000E+00  0.0000E+00  0.0000E+00  0.0000E+00  0.0000E+00  0.0000E+00
    -25.237  0.0000E+00  0.0000E+00  0.0000E+00  0.0000E+00  0.0000E+00  0.0000E+00
    -25.040  0.0000E+00  0.0000E+00  0.0000E+00  0.0000E+00  0.0000E+00  0.0000E+00
    -24.843  0.0000E+00  0.0000E+00  0.0000E+00  0.0000E+00  0.0000E+00  0.0000E+00
    -24.646  0.0000E+00  0.0000E+00  0.0000E+00  0.0000E+00  0.0000E+00  0.0000E+00
    -24.448  0.0000E+00  0.0000E+00  0.0000E+00  0.0000E+00  0.0000E+00  0.0000E+00
    -24.251  0.0000E+00  0.0000E+00  0.0000E+00  0.0000E+00  0.0000E+00  0.0000E+00
    -24.054  0.0000E+00  0.0000E+00  0.0000E+00  0.0000E+00  0.0000E+00  0.0000E+00
    -23.857  0.0000E+00  0.0000E+00  0.0000E+00  0.0000E+00  0.0000E+00  0.0000E+00
    -23.660  0.0000E+00  0.0000E+00  0.0000E+00  0.0000E+00  0.0000E+00  0.0000E+00
    -23.463  0.0000E+00  0.0000E+00  0.0000E+00  0.0000E+00  0.0000E+00  0.0000E+00
    -23.266  0.0000E+00  0.0000E+00  0.0000E+00  0.0000E+00  0.0000E+00  0.0000E+00
    -23.068  0.0000E+00  0.0000E+00  0.0000E+00  0.0000E+00  0.0000E+00  0.0000E+00
    -22.871  0.0000E+00  0.0000E+00  0.0000E+00  0.0000E+00  0.0000E+00  0.0000E+00
    -22.674  0.0000E+00  0.0000E+00  0.0000E+00  0.0000E+00  0.0000E+00  0.0000E+00
    -22.477  0.0000E+00  0.0000E+00  0.0000E+00  0.0000E+00  0.0000E+00  0.0000E+00
    -22.280  0.0000E+00  0.0000E+00  0.0000E+00  0.0000E+00  0.0000E+00  0.0000E+00
    -22.083  0.0000E+00  0.0000E+00  0.0000E+00  0.0000E+00  0.0000E+00  0.0000E+00
    -21.885  0.0000E+00  0.0000E+00  0.0000E+00  0.0000E+00  0.0000E+00  0.0000E+00
    -21.688  0.0000E+00  0.0000E+00  0.0000E+00  0.0000E+00  0.0000E+00  0.0000E+00
    -21.491  0.0000E+00  0.0000E+00  0.0000E+00  0.0000E+00  0.0000E+00  0.0000E+00
    -21.294  0.0000E+00  0.0000E+00  0.0000E+00  0.0000E+00  0.0000E+00  0.0000E+00
    -21.097  0.0000E+00  0.0000E+00  0.0000E+00  0.0000E+00  0.0000E+00  0.0000E+00
    -20.900  0.0000E+00  0.0000E+00  0.0000E+00  0.0000E+00  0.0000E+00  0.0000E+00
    -20.703  0.0000E+00  0.0000E+00  0.0000E+00  0.0000E+00  0.0000E+00  0.0000E+00
    -20.505  0.0000E+00  0.0000E+00  0.0000E+00  0.0000E+00  0.0000E+00  0.0000E+00
    -20.308  0.0000E+00  0.0000E+00  0.0000E+00  0.0000E+00  0.0000E+00  0.0000E+00
    -20.111  0.0000E+00  0.0000E+00  0.0000E+00  0.0000E+00  0.0000E+00  0.0000E+00
    -19.914  0.0000E+00  0.0000E+00  0.0000E+00  0.0000E+00  0.0000E+00  0.0000E+00
    -19.717  0.0000E+00  0.0000E+00  0.0000E+00  0.0000E+00  0.0000E+00  0.0000E+00
    -19.520  0.0000E+00  0.0000E+00  0.0000E+00  0.0000E+00  0.0000E+00  0.0000E+00
    -19.323  0.0000E+00  0.0000E+00  0.0000E+00  0.0000E+00  0.0000E+00  0.0000E+00
    -19.125  0.0000E+00  0.0000E+00  0.0000E+00  0.0000E+00  0.0000E+00  0.0000E+00
    -18.928  0.0000E+00  0.0000E+00  0.0000E+00  0.0000E+00  0.0000E+00  0.0000E+00
    -18.731  0.0000E+00  0.0000E+00  0.0000E+00  0.0000E+00  0.0000E+00  0.0000E+00
    -18.534  0.0000E+00  0.0000E+00  0.0000E+00  0.0000E+00  0.0000E+00  0.0000E+00
    -18.337  0.0000E+00  0.0000E+00  0.0000E+00  0.0000E+00  0.0000E+00  0.0000E+00
    -18.140  0.0000E+00  0.0000E+00  0.0000E+00  0.0000E+00  0.0000E+00  0.0000E+00
    -17.943  0.0000E+00  0.0000E+00  0.0000E+00  0.0000E+00  0.0000E+00  0.0000E+00
    -17.745  0.0000E+00  0.0000E+00  0.0000E+00  0.0000E+00  0.0000E+00  0.0000E+00
    -17.548  0.0000E+00  0.0000E+00  0.0000E+00  0.0000E+00  0.0000E+00  0.0000E+00
    -17.351  0.0000E+00  0.0000E+00  0.0000E+00  0.0000E+00  0.0000E+00  0.0000E+00
    -17.154  0.0000E+00  0.0000E+00  0.0000E+00  0.0000E+00  0.0000E+00  0.0000E+00
    -16.957  0.0000E+00  0.0000E+00  0.0000E+00  0.0000E+00  0.0000E+00  0.0000E+00
    -16.760  0.0000E+00  0.0000E+00  0.0000E+00  0.0000E+00  0.0000E+00  0.0000E+00