  48  48   1   0
  0.7994242E+01  0.4832753E-09  0.8491340E-09  0.9490661E-09  0.5000000E-15
  1.000000000000000E-004
  CAR 
 Li2GeO3                                 
     19.61754292    -41.18145091  301      4.26579698      1.00000000
    -41.181  0.0000E+00  0.0000E+00
    -40.979  0.0000E+00  0.0000E+00
    -40.776  0.0000E+00  0.0000E+00
    -40.573  0.0000E+00  0.0000E+00
    -40.371  0.0000E+00  0.0000E+00
    -40.168  0.0000E+00  0.0000E+00
    -39.965  0.0000E+00  0.0000E+00
    -39.763  0.0000E+00  0.0000E+00
    -39.560  0.0000E+00  0.0000E+00
    -39.357  0.0000E+00  0.0000E+00
    -39.155  0.0000E+00  0.0000E+00
    -38.952  0.0000E+00  0.0000E+00
    -38.749  0.0000E+00  0.0000E+00
    -38.547  0.0000E+00  0.0000E+00
    -38.344  0.0000E+00  0.2400E+02
    -38.142  0.0000E+00  0.2400E+02
    -37.939  0.0000E+00  0.3200E+02
    -37.736  0.0000E+00  0.3200E+02
    -37.534  0.0000E+00  0.3200E+02
    -37.331  0.0000E+00  0.3200E+02
    -37.128  0.0000E+00  0.3200E+02
    -36.926  0.0000E+00  0.3200E+02
    -36.723  0.0000E+00  0.3200E+02
    -36.520  0.0000E+00  0.3200E+02
    -36.318  0.0000E+00  0.3200E+02
    -36.115  0.0000E+00  0.3200E+02
    -35.912  0.0000E+00  0.3200E+02
    -35.710  0.0000E+00  0.3200E+02
    -35.507  0.0000E+00  0.3200E+02
    -35.304  0.0000E+00  0.3200E+02
    -35.102  0.0000E+00  0.3200E+02
    -34.899  0.0000E+00  0.3200E+02
    -34.696  0.0000E+00  0.3200E+02
    -34.494  0.0000E+00  0.3200E+02
    -34.291  0.0000E+00  0.3200E+02
    -34.088  0.0000E+00  0.3200E+02
    -33.886  0.0000E+00  0.3200E+02
    -33.683  0.0000E+00  0.3200E+02
    -33.480  0.0000E+00  0.3200E+02
    -33.278  0.0000E+00  0.3200E+02
    -33.075  0.0000E+00  0.3200E+02
    -32.872  0.0000E+00  0.3200E+02
    -32.670  0.0000E+00  0.3200E+02
    -32.467  0.0000E+00  0.3200E+02
    -32.264  0.0000E+00  0.3200E+02
    -32.062  0.0000E+00  0.3200E+02
    -31.859  0.0000E+00  0.3200E+02
    -31.656  0.0000E+00  0.3200E+02
    -31.454  0.0000E+00  0.3200E+02
    -31.251  0.0000E+00  0.3200E+02
    -31.048  0.0000E+00  0.3200E+02
    -30.846  0.0000E+00  0.3200E+02
    -30.643  0.0000E+00  0.3200E+02
    -30.440  0.0000E+00  0.3200E+02
    -30.238  0.0000E+00  0.3200E+02
    -30.035  0.0000E+00  0.3200E+02
    -29.832  0.0000E+00  0.3200E+02
    -29.630  0.0000E+00  0.3200E+02
    -29.427  0.0000E+00  0.3200E+02
    -29.224  0.0000E+00  0.3200E+02
    -29.022  0.0000E+00  0.3200E+02
    -28.819  0.0000E+00  0.3200E+02
    -28.616  0.0000E+00  0.3200E+02
    -28.414  0.0000E+00  0.3200E+02
    -28.211  0.0000E+00  0.3200E+02
    -28.008  0.0000E+00  0.3200E+02
    -27.806  0.0000E+00  0.3200E+02
    -27.603  0.0000E+00  0.3200E+02
    -27.400  0.0000E+00  0.3200E+02
    -27.198  0.0000E+00  0.3200E+02
    -26.995  0.0000E+00  0.3200E+02
    -26.792  0.0000E+00  0.3200E+02
    -26.590  0.0000E+00  0.3200E+02
    -26.387  0.0000E+00  0.3200E+02
    -26.184  0.0000E+00  0.3200E+02
    -25.982  0.0000E+00  0.3200E+02
    -25.779  0.0000E+00  0.3200E+02
    -25.576  0.0000E+00  0.3200E+02
    -25.374  0.0000E+00  0.3200E+02
    -25.171  0.0000E+00  0.3200E+02
    -24.968  0.0000E+00  0.3200E+02
    -24.766  0.0000E+00  0.3200E+02
    -24.563  0.0000E+00  0.3200E+02
    -24.360  0.0000E+00  0.3200E+02
    -24.158  0.0000E+00  0.3200E+02
    -23.955  0.0000E+00  0.3200E+02
    -23.752  0.0000E+00  0.3200E+02
    -23.550  0.0000E+00  0.3200E+02
    -23.347  0.0000E+00  0.3200E+02
    -23.144  0.0000E+00  0.3200E+02
    -22.942  0.0000E+00  0.3200E+02
    -22.739  0.0000E+00  0.3200E+02
    -22.536  0.0000E+00  0.3200E+02
    -22.334  0.0000E+00  0.3200E+02
    -22.131  0.0000E+00  0.3200E+02
    -21.928  0.0000E+00  0.3200E+02
    -21.726  0.0000E+00  0.3200E+02
    -21.523  0.0000E+00  0.3200E+02
    -21.320  0.0000E+00  0.3200E+02
    -21.118  0.0000E+00  0.3200E+02
    -20.915  0.0000E+00  0.3200E+02
    -20.712  0.0000E+00  0.3200E+02
    -20.510  0.0000E+00  0.3200E+02
    -20.307  0.0000E+00  0.3200E+02
    -20.104  0.0000E+00  0.3200E+02
    -19.902  0.0000E+00  0.3200E+02
    -19.699  0.0000E+00  0.3200E+02
    -19.496  0.0000E+00  0.3200E+02
    -19.294  0.0000E+00  0.3200E+02
    -19.091  0.2284E+02  0.4824E+02
    -18.888  0.3850E+03  0.7796E+02
    -18.686  0.0000E+00  0.1120E+03
    -18.483  0.0000E+00  0.1120E+03
    -18.280  0.0000E+00  0.1120E+03
    -18.078  0.0000E+00  0.1120E+03
    -17.875  0.0000E+00  0.1120E+03
    -17.673  0.0000E+00  0.1120E+03
    -17.470  0.0000E+00  0.1120E+03
    -17.267  0.0000E+00  0.1120E+03
    -17.065  0.0000E+00  0.1120E+03
    -16.862  0.0000E+00  0.1120E+03
    -16.659  0.0000E+00  0.1120E+03
    -16.457  0.0000E+00  0.1120E+03
    -16.254  0.0000E+00  0.1120E+03
    -16.051  0.0000E+00  0.1120E+03
    -15.849  0.0000E+00  0.1120E+03
    -15.646  0.0000E+00  0.1120E+03
    -15.443  0.0000E+00  0.1120E+03
    -15.241  0.0000E+00  0.1120E+03
    -15.038  0.6971E+01  0.1127E+03
    -14.835  0.7180E+01  0.1141E+03
    -14.633  0.8257E+01  0.1157E+03
    -14.430  0.1106E+02  0.1177E+03
    -14.227  0.4795E+01  0.1196E+03
    -14.025  0.2725E-01  0.1200E+03
    -13.822  0.7242E+01  0.1206E+03
    -13.619  0.8777E+01  0.1228E+03
    -13.417  0.6208E+01  0.1243E+03
    -13.214  0.5653E+01  0.1254E+03
    -13.011  0.3441E+02  0.1282E+03
    -12.809  0.6829E+01  0.1351E+03
    -12.606  0.3942E+02  0.1387E+03
    -12.403  0.1207E+02  0.1432E+03
    -12.201  0.3865E+01  0.1442E+03
    -11.998  0.1647E+02  0.1463E+03
    -11.795  0.4329E+02  0.1511E+03
    -11.593  0.3992E+02  0.1585E+03
    -11.390  0.0000E+00  0.1600E+03
    -11.187  0.0000E+00  0.1600E+03
    -10.985  0.0000E+00  0.1600E+03
    -10.782  0.0000E+00  0.1600E+03
    -10.579  0.0000E+00  0.1600E+03
    -10.377  0.0000E+00  0.1600E+03
    -10.174  0.0000E+00  0.1600E+03
     -9.971  0.0000E+00  0.1600E+03
     -9.769  0.0000E+00  0.1600E+03
     -9.566  0.0000E+00  0.1600E+03
     -9.363  0.0000E+00  0.1600E+03
     -9.161  0.0000E+00  0.1600E+03
     -8.958  0.0000E+00  0.1600E+03
     -8.755  0.0000E+00  0.1600E+03
     -8.553  0.0000E+00  0.1600E+03
     -8.350  0.0000E+00  0.1600E+03
     -8.147  0.0000E+00  0.1600E+03
     -7.945  0.0000E+00  0.1600E+03
     -7.742  0.0000E+00  0.1600E+03
     -7.539  0.0000E+00  0.1600E+03
     -7.337  0.0000E+00  0.1600E+03
     -7.134  0.0000E+00  0.1600E+03
     -6.931  0.0000E+00  0.1600E+03
     -6.729  0.0000E+00  0.1600E+03
     -6.526  0.0000E+00  0.1600E+03
     -6.323  0.0000E+00  0.1600E+03
     -6.121  0.0000E+00  0.1600E+03
     -5.918  0.0000E+00  0.1600E+03
     -5.715  0.0000E+00  0.1600E+03
     -5.513  0.0000E+00  0.1600E+03
     -5.310  0.0000E+00  0.1600E+03
     -5.107  0.0000E+00  0.1600E+03
     -4.905  0.0000E+00  0.1600E+03
     -4.702  0.0000E+00  0.1600E+03
     -4.499  0.0000E+00  0.1600E+03
     -4.297  0.0000E+00  0.1600E+03
     -4.094  0.3857E+01  0.1601E+03
     -3.891  0.4717E+01  0.1610E+03
     -3.689  0.4317E+01  0.1620E+03
     -3.486  0.7136E+01  0.1633E+03
     -3.283  0.9876E+01  0.1652E+03
     -3.081  0.5147E+01  0.1669E+03
     -2.878  0.2621E+01  0.1677E+03
     -2.675  0.8521E-01  0.1680E+03
     -2.473  0.2208E+01  0.1681E+03
     -2.270  0.8908E+01  0.1691E+03
     -2.067  0.1538E+02  0.1730E+03
     -1.865  0.5174E+01  0.1748E+03
     -1.662  0.3982E+01  0.1756E+03
     -1.459  0.8198E+01  0.1768E+03
     -1.257  0.1149E+02  0.1788E+03
     -1.054  0.1754E+02  0.1816E+03
     -0.851  0.1030E+02  0.1845E+03
     -0.649  0.1829E+02  0.1872E+03
     -0.446  0.1182E+02  0.1908E+03
     -0.243  0.1387E+02  0.1935E+03
     -0.041  0.2198E+02  0.1969E+03
      0.162  0.1661E+02  0.2010E+03
      0.365  0.1303E+02  0.2039E+03
      0.567  0.1187E+02  0.2064E+03
      0.770  0.1177E+02  0.2088E+03
      0.973  0.1671E+02  0.2118E+03
      1.175  0.1018E+02  0.2149E+03
      1.378  0.6162E+01  0.2163E+03
      1.581  0.2454E+02  0.2202E+03
      1.783  0.2194E+02  0.2248E+03
      1.986  0.3197E+02  0.2298E+03
      2.188  0.2274E+02  0.2350E+03
      2.391  0.2196E+02  0.2392E+03
      2.594  0.4036E+02  0.2449E+03
      2.796  0.4019E+02  0.2532E+03
      2.999  0.4881E+02  0.2621E+03
      3.202  0.4327E+02  0.2707E+03
      3.404  0.3922E+02  0.2787E+03
      3.607  0.5375E+02  0.2870E+03
      3.810  0.4760E+02  0.2969E+03
      4.012  0.5209E+01  0.3037E+03
      4.215  0.0000E+00  0.3040E+03
      4.418  0.0000E+00  0.3040E+03
      4.620  0.0000E+00  0.3040E+03
      4.823  0.0000E+00  0.3040E+03
      5.026  0.0000E+00  0.3040E+03
      5.228  0.0000E+00  0.3040E+03
      5.431  0.0000E+00  0.3040E+03
      5.634  0.0000E+00  0.3040E+03
      5.836  0.0000E+00  0.3040E+03
      6.039  0.0000E+00  0.3040E+03
      6.242  0.0000E+00  0.3040E+03
      6.444  0.0000E+00  0.3040E+03
      6.647  0.0000E+00  0.3040E+03
      6.850  0.0000E+00  0.3040E+03
      7.052  0.0000E+00  0.3040E+03
      7.255  0.0000E+00  0.3040E+03
      7.458  0.0000E+00  0.3040E+03
      7.660  0.0000E+00  0.3040E+03
      7.863  0.0000E+00  0.3040E+03
      8.066  0.0000E+00  0.3040E+03
      8.268  0.0000E+00  0.3040E+03
      8.471  0.0000E+00  0.3040E+03
      8.674  0.0000E+00  0.3040E+03
      8.876  0.2794E+00  0.3040E+03
      9.079  0.6880E+00  0.3041E+03
      9.282  0.1205E+01  0.3043E+03
      9.484  0.1827E+01  0.3046E+03
      9.687  0.2242E+01  0.3050E+03
      9.890  0.4008E+01  0.3056E+03
     10.092  0.5022E+01  0.3065E+03
     10.295  0.9248E+01  0.3079E+03
     10.498  0.3019E+02  0.3121E+03
     10.700  0.1519E+02  0.3167E+03
     10.903  0.7134E+01  0.3193E+03
     11.106  0.0000E+00  0.3200E+03
     11.308  0.0000E+00  0.3200E+03
     11.511  0.0000E+00  0.3200E+03
     11.714  0.2607E-01  0.3200E+03
     11.916  0.1054E+01  0.3201E+03
     12.119  0.3029E+01  0.3206E+03
     12.322  0.4545E+01  0.3213E+03
     12.524  0.5723E+01  0.3224E+03
     12.727  0.7170E+01  0.3237E+03
     12.930  0.7647E+01  0.3252E+03
     13.132  0.1050E+02  0.3269E+03
     13.335  0.1338E+02  0.3296E+03
     13.538  0.1178E+02  0.3322E+03
     13.740  0.1209E+02  0.3347E+03
     13.943  0.1136E+02  0.3372E+03
     14.146  0.1005E+02  0.3394E+03
     14.348  0.8567E+01  0.3413E+03
     14.551  0.6984E+01  0.3428E+03
     14.754  0.1096E+02  0.3447E+03
     14.956  0.1255E+02  0.3473E+03
     15.159  0.1329E+02  0.3498E+03
     15.362  0.1225E+02  0.3524E+03
     15.564  0.1113E+02  0.3549E+03
     15.767  0.1109E+02  0.3571E+03
     15.970  0.1239E+02  0.3593E+03
     16.172  0.1597E+02  0.3624E+03
     16.375  0.1205E+02  0.3652E+03
     16.578  0.6527E+01  0.3670E+03
     16.780  0.6786E+00  0.3680E+03
     16.983  0.0000E+00  0.3680E+03
     17.186  0.0000E+00  0.3680E+03
     17.388  0.0000E+00  0.3680E+03
     17.591  0.0000E+00  0.3680E+03
     17.794  0.0000E+00  0.3680E+03
     17.996  0.0000E+00  0.3680E+03
     18.199  0.0000E+00  0.3680E+03
     18.402  0.0000E+00  0.3680E+03
     18.604  0.0000E+00  0.3680E+03
     18.807  0.0000E+00  0.3680E+03
     19.010  0.0000E+00  0.3680E+03
     19.212  0.0000E+00  0.3680E+03
     19.415  0.0000E+00  0.3680E+03
     19.618  0.0000E+00  0.3680E+03
     19.61754292    -41.18145091  301      4.26579698      1.00000000
    -41.181  0.0000E+00  0.0000E+00  0.0000E+00  0.0000E+00  0.0000E+00  0.0000E+00  0.0000E+00  0.0000E+00  0.0000E+00
    -40.979  0.0000E+00  0.0000E+00  0.0000E+00  0.0000E+00  0.0000E+00  0.0000E+00  0.0000E+00  0.0000E+00  0.0000E+00
    -40.776  0.0000E+00  0.0000E+00  0.0000E+00  0.0000E+00  0.0000E+00  0.0000E+00  0.0000E+00  0.0000E+00  0.0000E+00
    -40.573  0.0000E+00  0.0000E+00  0.0000E+00  0.0000E+00  0.0000E+00  0.0000E+00  0.0000E+00  0.0000E+00  0.0000E+00
    -40.371  0.0000E+00  0.0000E+00  0.0000E+00  0.0000E+00  0.0000E+00  0.0000E+00  0.0000E+00  0.0000E+00  0.0000E+00
    -40.168  0.0000E+00  0.0000E+00  0.0000E+00  0.0000E+00  0.0000E+00  0.0000E+00  0.0000E+00  0.0000E+00  0.0000E+00
    -39.965  0.0000E+00  0.0000E+00  0.0000E+00  0.0000E+00  0.0000E+00  0.0000E+00  0.0000E+00  0.0000E+00  0.0000E+00
    -39.763  0.0000E+00  0.0000E+00  0.0000E+00  0.0000E+00  0.0000E+00  0.0000E+00  0.0000E+00  0.0000E+00  0.0000E+00
    -39.560  0.0000E+00  0.0000E+00  0.0000E+00  0.0000E+00  0.0000E+00  0.0000E+00  0.0000E+00  0.0000E+00  0.0000E+00
    -39.357  0.0000E+00  0.0000E+00  0.0000E+00  0.0000E+00  0.0000E+00  0.0000E+00  0.0000E+00  0.0000E+00  0.0000E+00
    -39.155  0.0000E+00  0.0000E+00  0.0000E+00  0.0000E+00  0.0000E+00  0.0000E+00  0.0000E+00  0.0000E+00  0.0000E+00
    -38.952  0.0000E+00  0.0000E+00  0.0000E+00  0.0000E+00  0.0000E+00  0.0000E+00  0.0000E+00  0.0000E+00  0.0000E+00
    -38.749  0.0000E+00  0.0000E+00  0.0000E+00  0.0000E+00  0.0000E+00  0.0000E+00  0.0000E+00  0.0000E+00  0.0000E+00
    -38.547  0.0000E+00  0.0000E+00  0.0000E+00  0.0000E+00  0.0000E+00  0.0000E+00  0.0000E+00  0.0000E+00  0.0000E+00
    -38.344  0.0000E+00  0.0000E+00  0.0000E+00  0.0000E+00  0.0000E+00  0.0000E+00  0.0000E+00  0.0000E+00  0.0000E+00
    -38.142  0.0000E+00  0.0000E+00  0.0000E+00  0.0000E+00  0.0000E+00  0.0000E+00  0.0000E+00  0.0000E+00  0.0000E+00
    -37.939  0.0000E+00  0.0000E+00  0.0000E+00  0.0000E+00  0.0000E+00  0.0000E+00  0.0000E+00  0.0000E+00  0.0000E+00
    -37.736  0.0000E+00  0.0000E+00  0.0000E+00  0.0000E+00  0.0000E+00  0.0000E+00  0.0000E+00  0.0000E+00  0.0000E+00
    -37.534  0.0000E+00  0.0000E+00  0.0000E+00  0.0000E+00  0.0000E+00  0.0000E+00  0.0000E+00  0.0000E+00  0.0000E+00
    -37.331  0.0000E+00  0.0000E+00  0.0000E+00  0.0000E+00  0.0000E+00  0.0000E+00  0.0000E+00  0.0000E+00  0.0000E+00
    -37.128  0.0000E+00  0.0000E+00  0.0000E+00  0.0000E+00  0.0000E+00  0.0000E+00  0.0000E+00  0.0000E+00  0.0000E+00
    -36.926  0.0000E+00  0.0000E+00  0.0000E+00  0.0000E+00  0.0000E+00  0.0000E+00  0.0000E+00  0.0000E+00  0.0000E+00
    -36.723  0.0000E+00  0.0000E+00  0.0000E+00  0.0000E+00  0.0000E+00  0.0000E+00  0.0000E+00  0.0000E+00  0.0000E+00
    -36.520  0.0000E+00  0.0000E+00  0.0000E+00  0.0000E+00  0.0000E+00  0.0000E+00  0.0000E+00  0.0000E+00  0.0000E+00
    -36.318  0.0000E+00  0.0000E+00  0.0000E+00  0.0000E+00  0.0000E+00  0.0000E+00  0.0000E+00  0.0000E+00  0.0000E+00
    -36.115  0.0000E+00  0.0000E+00  0.0000E+00  0.0000E+00  0.0000E+00  0.0000E+00  0.0000E+00  0.0000E+00  0.0000E+00
    -35.912  0.0000E+00  0.0000E+00  0.0000E+00  0.0000E+00  0.0000E+00  0.0000E+00  0.0000E+00  0.0000E+00  0.0000E+00
    -35.710  0.0000E+00  0.0000E+00  0.0000E+00  0.0000E+00  0.0000E+00  0.0000E+00  0.0000E+00  0.0000E+00  0.0000E+00
    -35.507  0.0000E+00  0.0000E+00  0.0000E+00  0.0000E+00  0.0000E+00  0.0000E+00  0.0000E+00  0.0000E+00  0.0000E+00
    -35.304  0.0000E+00  0.0000E+00  0.0000E+00  0.0000E+00  0.0000E+00  0.0000E+00  0.0000E+00  0.0000E+00  0.0000E+00
    -35.102  0.0000E+00  0.0000E+00  0.0000E+00  0.0000E+00  0.0000E+00  0.0000E+00  0.0000E+00  0.0000E+00  0.0000E+00
    -34.899  0.0000E+00  0.0000E+00  0.0000E+00  0.0000E+00  0.0000E+00  0.0000E+00  0.0000E+00  0.0000E+00  0.0000E+00
    -34.696  0.0000E+00  0.0000E+00  0.0000E+00  0.0000E+00  0.0000E+00  0.0000E+00  0.0000E+00  0.0000E+00  0.0000E+00
    -34.494  0.0000E+00  0.0000E+00  0.0000E+00  0.0000E+00  0.0000E+00  0.0000E+00  0.0000E+00  0.0000E+00  0.0000E+00
    -34.291  0.0000E+00  0.0000E+00  0.0000E+00  0.0000E+00  0.0000E+00  0.0000E+00  0.0000E+00  0.0000E+00  0.0000E+00
    -34.088  0.0000E+00  0.0000E+00  0.0000E+00  0.0000E+00  0.0000E+00  0.0000E+00  0.0000E+00  0.0000E+00  0.0000E+00
    -33.886  0.0000E+00  0.0000E+00  0.0000E+00  0.0000E+00  0.0000E+00  0.0000E+00  0.0000E+00  0.0000E+00  0.0000E+00
    -33.683  0.0000E+00  0.0000E+00  0.0000E+00  0.0000E+00  0.0000E+00  0.0000E+00  0.0000E+00  0.0000E+00  0.0000E+00
    -33.480  0.0000E+00  0.0000E+00  0.0000E+00  0.0000E+00  0.0000E+00  0.0000E+00  0.0000E+00  0.0000E+00  0.0000E+00
    -33.278  0.0000E+00  0.0000E+00  0.0000E+00  0.0000E+00  0.0000E+00  0.0000E+00  0.0000E+00  0.0000E+00  0.0000E+00
    -33.075  0.0000E+00  0.0000E+00  0.0000E+00  0.0000E+00  0.0000E+00  0.0000E+00  0.0000E+00  0.0000E+00  0.0000E+00
    -32.872  0.0000E+00  0.0000E+00  0.0000E+00  0.0000E+00  0.0000E+00  0.0000E+00  0.0000E+00  0.0000E+00  0.0000E+00
    -32.670  0.0000E+00  0.0000E+00  0.0000E+00  0.0000E+00  0.0000E+00  0.0000E+00  0.0000E+00  0.0000E+00  0.0000E+00
    -32.467  0.0000E+00  0.0000E+00  0.0000E+00  0.0000E+00  0.0000E+00  0.0000E+00  0.0000E+00  0.0000E+00  0.0000E+00
    -32.264  0.0000E+00  0.0000E+00  0.0000E+00  0.0000E+00  0.0000E+00  0.0000E+00  0.0000E+00  0.0000E+00  0.0000E+00
    -32.062  0.0000E+00  0.0000E+00  0.0000E+00  0.0000E+00  0.0000E+00  0.0000E+00  0.0000E+00  0.0000E+00  0.0000E+00
    -31.859  0.0000E+00  0.0000E+00  0.0000E+00  0.0000E+00  0.0000E+00  0.0000E+00  0.0000E+00  0.0000E+00  0.0000E+00
    -31.656  0.0000E+00  0.0000E+00  0.0000E+00  0.0000E+00  0.0000E+00  0.0000E+00  0.0000E+00  0.0000E+00  0.0000E+00
    -31.454  0.0000E+00  0.0000E+00  0.0000E+00  0.0000E+00  0.0000E+00  0.0000E+00  0.0000E+00  0.0000E+00  0.0000E+00
    -31.251  0.0000E+00  0.0000E+00  0.0000E+00  0.0000E+00  0.0000E+00  0.0000E+00  0.0000E+00  0.0000E+00  0.0000E+00
    -31.048  0.0000E+00  0.0000E+00  0.0000E+00  0.0000E+00  0.0000E+00  0.0000E+00  0.0000E+00  0.0000E+00  0.0000E+00
    -30.846  0.0000E+00  0.0000E+00  0.0000E+00  0.0000E+00  0.0000E+00  0.0000E+00  0.0000E+00  0.0000E+00  0.0000E+00
    -30.643  0.0000E+00  0.0000E+00  0.0000E+00  0.0000E+00  0.0000E+00  0.0000E+00  0.0000E+00  0.0000E+00  0.0000E+00
    -30.440  0.0000E+00  0.0000E+00  0.0000E+00  0.0000E+00  0.0000E+00  0.0000E+00  0.0000E+00  0.0000E+00  0.0000E+00
    -30.238  0.0000E+00  0.0000E+00  0.0000E+00  0.0000E+00  0.0000E+00  0.0000E+00  0.0000E+00  0.0000E+00  0.0000E+00
    -30.035  0.0000E+00  0.0000E+00  0.0000E+00  0.0000E+00  0.0000E+00  0.0000E+00  0.0000E+00  0.0000E+00  0.0000E+00
    -29.832  0.0000E+00  0.0000E+00  0.0000E+00  0.0000E+00  0.0000E+00  0.0000E+00  0.0000E+00  0.0000E+00  0.0000E+00
    -29.630  0.0000E+00  0.0000E+00  0.0000E+00  0.0000E+00  0.0000E+00  0.0000E+00  0.0000E+00  0.0000E+00  0.0000E+00
    -29.427  0.0000E+00  0.0000E+00  0.0000E+00  0.0000E+00  0.0000E+00  0.0000E+00  0.0000E+00  0.0000E+00  0.0000E+00
    -29.224  0.0000E+00  0.0000E+00  0.0000E+00  0.0000E+00  0.0000E+00  0.0000E+00  0.0000E+00  0.0000E+00  0.0000E+00
    -29.022  0.0000E+00  0.0000E+00  0.0000E+00  0.0000E+00  0.0000E+00  0.0000E+00  0.0000E+00  0.0000E+00  0.0000E+00
    -28.819  0.0000E+00  0.0000E+00  0.0000E+00  0.0000E+00  0.0000E+00  0.0000E+00  0.0000E+00  0.0000E+00  0.0000E+00
    -28.616  0.0000E+00  0.0000E+00  0.0000E+00  0.0000E+00  0.0000E+00  0.0000E+00  0.0000E+00  0.0000E+00  0.0000E+00
    -28.414  0.0000E+00  0.0000E+00  0.0000E+00  0.0000E+00  0.0000E+00  0.0000E+00  0.0000E+00  0.0000E+00  0.0000E+00
    -28.211  0.0000E+00  0.0000E+00  0.0000E+00  0.0000E+00  0.0000E+00  0.0000E+00  0.0000E+00  0.0000E+00  0.0000E+00
    -28.008  0.0000E+00  0.0000E+00  0.0000E+00  0.0000E+00  0.0000E+00  0.0000E+00  0.0000E+00  0.0000E+00  0.0000E+00
    -27.806  0.0000E+00  0.0000E+00  0.0000E+00  0.0000E+00  0.0000E+00  0.0000E+00  0.0000E+00  0.0000E+00  0.0000E+00
    -27.603  0.0000E+00  0.0000E+00  0.0000E+00  0.0000E+00  0.0000E+00  0.0000E+00  0.0000E+00  0.0000E+00  0.0000E+00
    -27.400  0.0000E+00  0.0000E+00  0.0000E+00  0.0000E+00  0.0000E+00  0.0000E+00  0.0000E+00  0.0000E+00  0.0000E+00
    -27.198  0.0000E+00  0.0000E+00  0.0000E+00  0.0000E+00  0.0000E+00  0.0000E+00  0.0000E+00  0.0000E+00  0.0000E+00
    -26.995  0.0000E+00  0.0000E+00  0.0000E+00  0.0000E+00  0.0000E+00  0.0000E+00  0.0000E+00  0.0000E+00  0.0000E+00
    -26.792  0.0000E+00  0.0000E+00  0.0000E+00  0.0000E+00  0.0000E+00  0.0000E+00  0.0000E+00  0.0000E+00  0.0000E+00
    -26.590  0.0000E+00  0.0000E+00  0.0000E+00  0.0000E+00  0.0000E+00  0.0000E+00  0.0000E+00  0.0000E+00  0.0000E+00
    -26.387  0.0000E+00  0.0000E+00  0.0000E+00  0.0000E+00  0.0000E+00  0.0000E+00  0.0000E+00  0.0000E+00  0.0000E+00
    -26.184  0.0000E+00  0.0000E+00  0.0000E+00  0.0000E+00  0.0000E+00  0.0000E+00  0.0000E+00  0.0000E+00  0.0000E+00
    -25.982  0.0000E+00  0.0000E+00  0.0000E+00  0.0000E+00  0.0000E+00  0.0000E+00  0.0000E+00  0.0000E+00  0.0000E+00
    -25.779  0.0000E+00  0.0000E+00  0.0000E+00  0.0000E+00  0.0000E+00  0.0000E+00  0.0000E+00  0.0000E+00  0.0000E+00
    -25.576  0.0000E+00  0.0000E+00  0.0000E+00  0.0000E+00  0.0000E+00  0.0000E+00  0.0000E+00  0.0000E+00  0.0000E+00
    -25.374  0.0000E+00  0.0000E+00  0.0000E+00  0.0000E+00  0.0000E+00  0.0000E+00  0.0000E+00  0.0000E+00  0.0000E+00
    -25.171  0.0000E+00  0.0000E+00  0.0000E+00  0.0000E+00  0.0000E+00  0.0000E+00  0.0000E+00  0.0000E+00  0.0000E+00
    -24.968  0.0000E+00  0.0000E+00  0.0000E+00  0.0000E+00  0.0000E+00  0.0000E+00  0.0000E+00  0.0000E+00  0.0000E+00
    -24.766  0.0000E+00  0.0000E+00  0.0000E+00  0.0000E+00  0.0000E+00  0.0000E+00  0.0000E+00  0.0000E+00  0.0000E+00
    -24.563  0.0000E+00  0.0000E+00  0.0000E+00  0.0000E+00  0.0000E+00  0.0000E+00  0.0000E+00  0.0000E+00  0.0000E+00
    -24.360  0.0000E+00  0.0000E+00  0.0000E+00  0.0000E+00  0.0000E+00  0.0000E+00  0.0000E+00  0.0000E+00  0.0000E+00
    -24.158  0.0000E+00  0.0000E+00  0.0000E+00  0.0000E+00  0.0000E+00  0.0000E+00  0.0000E+00  0.0000E+00  0.0000E+00
    -23.955  0.0000E+00  0.0000E+00  0.0000E+00  0.0000E+00  0.0000E+00  0.0000E+00  0.0000E+00  0.0000E+00  0.0000E+00
    -23.752  0.0000E+00  0.0000E+00  0.0000E+00  0.0000E+00  0.0000E+00  0.0000E+00  0.0000E+00  0.0000E+00  0.0000E+00
    -23.550  0.0000E+00  0.0000E+00  0.0000E+00  0.0000E+00  0.0000E+00  0.0000E+00  0.0000E+00  0.0000E+00  0.0000E+00
    -23.347  0.0000E+00  0.0000E+00  0.0000E+00  0.0000E+00  0.0000E+00  0.0000E+00  0.0000E+00  0.0000E+00  0.0000E+00
    -23.144  0.0000E+00  0.0000E+00  0.0000E+00  0.0000E+00  0.0000E+00  0.0000E+00  0.0000E+00  0.0000E+00  0.0000E+00
    -22.942  0.0000E+00  0.0000E+00  0.0000E+00  0.0000E+00  0.0000E+00  0.0000E+00  0.0000E+00  0.0000E+00  0.0000E+00
    -22.739  0.0000E+00  0.0000E+00  0.0000E+00  0.0000E+00  0.0000E+00  0.0000E+00  0.0000E+00  0.0000E+00  0.0000E+00
    -22.536  0.0000E+00  0.0000E+00  0.0000E+00  0.0000E+00  0.0000E+00  0.0000E+00  0.0000E+00  0.0000E+00  0.0000E+00
    -22.334  0.0000E+00  0.0000E+00  0.0000E+00  0.0000E+00  0.0000E+00  0.0000E+00  0.0000E+00  0.0000E+00  0.0000E+00
    -22.131  0.0000E+00  0.0000E+00  0.0000E+00  0.0000E+00  0.0000E+00  0.0000E+00  0.0000E+00  0.0000E+00  0.0000E+00
    -21.928  0.0000E+00  0.0000E+00  0.0000E+00  0.0000E+00  0.0000E+00  0.0000E+00  0.0000E+00  0.0000E+00  0.0000E+00
    -21.726  0.0000E+00  0.0000E+00  0.0000E+00  0.0000E+00  0.0000E+00  0.0000E+00  0.0000E+00  0.0000E+00  0.0000E+00
    -21.523  0.0000E+00  0.0000E+00  0.0000E+00  0.0000E+00  0.0000E+00  0.0000E+00  0.0000E+00  0.0000E+00  0.0000E+00
    -21.320  0.0000E+00  0.0000E+00  0.0000E+00  0.0000E+00  0.0000E+00  0.0000E+00  0.0000E+00  0.0000E+00  0.0000E+00
    -21.118  0.0000E+00  0.0000E+00  0.0000E+00  0.0000E+00  0.0000E+00  0.0000E+00  0.0000E+00  0.0000E+00  0.0000E+00
    -20.915  0.0000E+00  0.0000E+00  0.0000E+00  0.0000E+00  0.0000E+00  0.0000E+00  0.0000E+00  0.0000E+00  0.0000E+00
    -20.712  0.0000E+00  0.0000E+00  0.0000E+00  0.0000E+00  0.0000E+00  0.0000E+00  0.0000E+00  0.0000E+00  0.0000E+00
    -20.510  0.0000E+00  0.0000E+00  0.0000E+00  0.0000E+00  0.0000E+00  0.0000E+00  0.0000E+00  0.0000E+00  0.0000E+00
    -20.307  0.0000E+00  0.0000E+00  0.0000E+00  0.0000E+00  0.0000E+00  0.0000E+00  0.0000E+00  0.0000E+00  0.0000E+00
    -20.104  0.0000E+00  0.0000E+00  0.0000E+00  0.0000E+00  0.0000E+00  0.0000E+00  0.0000E+00  0.0000E+00  0.0000E+00
    -19.902  0.0000E+00  0.0000E+00  0.0000E+00  0.0000E+00  0.0000E+00  0.0000E+00  0.0000E+00  0.0000E+00  0.0000E+00
    -19.699  0.0000E+00  0.0000E+00  0.0000E+00  0.0000E+00  0.0000E+00  0.0000E+00  0.0000E+00  0.0000E+00  0.0000E+00
    -19.496  0.0000E+00  0.0000E+00  0.0000E+00  0.0000E+00  0.0000E+00  0.0000E+00  0.0000E+00  0.0000E+00  0.0000E+00
    -19.294  0.0000E+00  0.0000E+00  0.0000E+00  0.0000E+00  0.0000E+00  0.0000E+00  0.0000E+00  0.0000E+00  0.0000E+00
    -19.091  0.3307E-06  0.7519E-06  0.5766E-06  0.1794E-06  0.0000E+00  0.0000E+00  0.0000E+00  0.0000E+00  0.0000E+00
    -18.888  0.2113E-03  0.2186E-04  0.1106E-04  0.3852E-04  0.0000E+00  0.0000E+00  0.0000E+00  0.0000E+00  0.0000E+00
    -18.686  0.0000E+00  0.0000E+00  0.0000E+00  0.0000E+00  0.0000E+00  0.0000E+00  0.0000E+00  0.0000E+00  0.0000E+00
    -18.483  0.0000E+00  0.0000E+00  0.0000E+00  0.0000E+00  0.0000E+00  0.0000E+00  0.0000E+00  0.0000E+00  0.0000E+00
    -18.280  0.0000E+00  0.0000E+00  0.0000E+00  0.0000E+00  0.0000E+00  0.0000E+00  0.0000E+00  0.0000E+00  0.0000E+00
    -18.078  0.0000E+00  0.0000E+00  0.0000E+00  0.0000E+00  0.0000E+00  0.0000E+00  0.0000E+00  0.0000E+00  0.0000E+00
    -17.875  0.0000E+00  0.0000E+00  0.0000E+00  0.0000E+00  0.0000E+00  0.0000E+00  0.0000E+00  0.0000E+00  0.0000E+00
    -17.673  0.0000E+00  0.0000E+00  0.0000E+00  0.0000E+00  0.0000E+00  0.0000E+00  0.0000E+00  0.0000E+00  0.0000E+00
    -17.470  0.0000E+00  0.0000E+00  0.0000E+00  0.0000E+00  0.0000E+00  0.0000E+00  0.0000E+00  0.0000E+00  0.0000E+00
    -17.267  0.0000E+00  0.0000E+00  0.0000E+00  0.0000E+00  0.0000E+00  0.0000E+00  0.0000E+00  0.0000E+00  0.0000E+00
    -17.065  0.0000E+00  0.0000E+00  0.0000E+00  0.0000E+00  0.0000E+00  0.0000E+00  0.0000E+00  0.0000E+00  0.0000E+00
    -16.862  0.0000E+00  0.0000E+00  0.0000E+00  0.0000E+00  0.0000E+00  0.0000E+00  0.0000E+00  0.0000E+00  0.0000E+00
    -16.659  0.0000E+00  0.0000E+00  0.0000E+00  0.0000E+00  0.0000E+00  0.0000E+00  0.0000E+00  0.0000E+00  0.0000E+00
    -16.457  0.0000E+00  0.0000E+00  0.0000E+00  0.0000E+00  0.0000E+00  0.0000E+00  0.0000E+00  0.0000E+00  0.0000E+00
    -16.254  0.0000E+00  0.0000E+00  0.0000E+00  0.0000E+00  0.0000E+00  0.0000E+00  0.0000E+00  0.0000E+00  0.0000E+00
    -16.051  0.0000E+00  0.0000E+00  0.0000E+00  0.0000E+00  0.0000E+00  0.0000E+00  0.0000E+00  0.0000E+00  0.0000E+00
    -15.849  0.0000E+00  0.0000E+00  0.0000E+00  0.0000E+00  0.0000E+00  0.0000E+00  0.0000E+00  0.0000E+00  0.0000E+00
    -15.646  0.0000E+00  0.0000E+00  0.0000E+00  0.0000E+00  0.0000E+00  0.0000E+00  0.0000E+00  0.0000E+00  0.0000E+00
    -15.443  0.0000E+00  0.0000E+00  0.0000E+00  0.0000E+00  0.0000E+00  0.0000E+00  0.0000E+00  0.0000E+00  0.0000E+00
    -15.241  0.0000E+00  0.0000E+00  0.0000E+00  0.0000E+00  0.0000E+00  0.0000E+00  0.0000E+00  0.0000E+00  0.0000E+00
    -15.038  0.4533E-02  0.4087E-04  0.3612E-06  0.4270E-04  0.0000E+00  0.0000E+00  0.0000E+00  0.0000E+00  0.0000E+00
    -14.835  0.3584E-02  0.1271E-03  0.4349E-06  0.1372E-03  0.0000E+00  0.0000E+00  0.0000E+00  0.0000E+00  0.0000E+00
    -14.633  0.2813E-02  0.2550E-03  0.5795E-06  0.2642E-03  0.0000E+00  0.0000E+00  0.0000E+00  0.0000E+00  0.0000E+00
    -14.430  0.1540E-02  0.5583E-03  0.9020E-06  0.5053E-03  0.0000E+00  0.0000E+00  0.0000E+00  0.0000E+00  0.0000E+00
    -14.227  0.2191E-03  0.2539E-03  0.5056E-06  0.2776E-03  0.0000E+00  0.0000E+00  0.0000E+00  0.0000E+00  0.0000E+00
    -14.025  0.4765E-06  0.1792E-05  0.8656E-09  0.1150E-05  0.0000E+00  0.0000E+00  0.0000E+00  0.0000E+00  0.0000E+00
    -13.822  0.1137E-02  0.2705E-03  0.1135E-05  0.3131E-03  0.0000E+00  0.0000E+00  0.0000E+00  0.0000E+00  0.0000E+00
    -13.619  0.1975E-02  0.2620E-03  0.9730E-06  0.2626E-03  0.0000E+00  0.0000E+00  0.0000E+00  0.0000E+00  0.0000E+00
    -13.417  0.8598E-03  0.2025E-03  0.6395E-06  0.2147E-03  0.0000E+00  0.0000E+00  0.0000E+00  0.0000E+00  0.0000E+00
    -13.214  0.6219E-03  0.1870E-03  0.2785E-05  0.1671E-03  0.0000E+00  0.0000E+00  0.0000E+00  0.0000E+00  0.0000E+00
    -13.011  0.8513E-02  0.9690E-03  0.6027E-03  0.7578E-03  0.0000E+00  0.0000E+00  0.0000E+00  0.0000E+00  0.0000E+00
    -12.809  0.1012E-03  0.1146E-03  0.6232E-04  0.1241E-03  0.0000E+00  0.0000E+00  0.0000E+00  0.0000E+00  0.0000E+00
    -12.606  0.7493E-03  0.4422E-03  0.1536E-02  0.5081E-03  0.0000E+00  0.0000E+00  0.0000E+00  0.0000E+00  0.0000E+00
    -12.403  0.1196E-03  0.1939E-04  0.1255E-03  0.2570E-04  0.0000E+00  0.0000E+00  0.0000E+00  0.0000E+00  0.0000E+00
    -12.201  0.4043E-04  0.2807E-04  0.2739E-04  0.5127E-04  0.0000E+00  0.0000E+00  0.0000E+00  0.0000E+00  0.0000E+00
    -11.998  0.2885E-03  0.1736E-03  0.5260E-03  0.3058E-03  0.0000E+00  0.0000E+00  0.0000E+00  0.0000E+00  0.0000E+00
    -11.795  0.1251E-02  0.7951E-03  0.1711E-03  0.4129E-02  0.0000E+00  0.0000E+00  0.0000E+00  0.0000E+00  0.0000E+00
    -11.593  0.8814E-02  0.4669E-03  0.1700E-02  0.8272E-04  0.0000E+00  0.0000E+00  0.0000E+00  0.0000E+00  0.0000E+00
    -11.390  0.0000E+00  0.0000E+00  0.0000E+00  0.0000E+00  0.0000E+00  0.0000E+00  0.0000E+00  0.0000E+00  0.0000E+00
    -11.187  0.0000E+00  0.0000E+00  0.0000E+00  0.0000E+00  0.0000E+00  0.0000E+00  0.0000E+00  0.0000E+00  0.0000E+00
    -10.985  0.0000E+00  0.0000E+00  0.0000E+00  0.0000E+00  0.0000E+00  0.0000E+00  0.0000E+00  0.0000E+00  0.0000E+00
    -10.782  0.0000E+00  0.0000E+00  0.0000E+00  0.0000E+00  0.0000E+00  0.0000E+00  0.0000E+00  0.0000E+00  0.0000E+00
    -10.579  0.0000E+00  0.0000E+00  0.0000E+00  0.0000E+00  0.0000E+00  0.0000E+00  0.0000E+00  0.0000E+00  0.0000E+00
    -10.377  0.0000E+00  0.0000E+00  0.0000E+00  0.0000E+00  0.0000E+00  0.0000E+00  0.0000E+00  0.0000E+00  0.0000E+00
    -10.174  0.0000E+00  0.0000E+00  0.0000E+00  0.0000E+00  0.0000E+00  0.0000E+00  0.0000E+00  0.0000E+00  0.0000E+00
     -9.971  0.0000E+00  0.0000E+00  0.0000E+00  0.0000E+00  0.0000E+00  0.0000E+00  0.0000E+00  0.0000E+00  0.0000E+00
     -9.769  0.0000E+00  0.0000E+00  0.0000E+00  0.0000E+00  0.0000E+00  0.0000E+00  0.0000E+00  0.0000E+00  0.0000E+00
     -9.566  0.0000E+00  0.0000E+00  0.0000E+00  0.0000E+00  0.0000E+00  0.0000E+00  0.0000E+00  0.0000E+00  0.0000E+00